<UPF version="2.0.1">
<PP_INFO>
Converted from CP2K GTH format
<PP_INPUTFILE>

    C GTH-PBE-q4 GTH-PBE
    2    2
     0.33847124    2    -8.80367398     1.33921085
    2
     0.30257575    1     9.62248665
     0.29150694    0
    
</PP_INPUTFILE>
</PP_INFO>
<PP_HEADER generated="Generated in analytical, separable form"
author="Goedecker/Hartwigsen/Hutter/Teter"
date="Phys.Rev.B58, 3641 (1998); B54, 1703 (1996)"
comment="PP_CHI.X and PP_RHOATOM sections deleted"
element="C"
pseudo_type="NC"
relativistic="no"
is_ultrasoft="F"
is_paw="F"
is_coulomb="F"
has_so="F"
has_wfc="F"
has_gipaw="F"
paw_as_gipaw="F"
core_correction="F"
functional="GTH-PBE"
z_valence="4.000000"
total_psenergy="0.000000000000000E+000"
wfc_cutoff="0.000000000000000E+000"
rho_cutoff="0.000000000000000E+000"
l_max="2"
l_max_rho="0"
l_local="-3"
mesh_size="1073"
number_of_wfc="0"
number_of_proj="1"/>
<PP_MESH
dx="1.2500000000000001e-02"
mesh="1073"
xmin="-7.0000000000000000e+00"
rmax="1.0030750631201370e+02"
zmesh="6.0000000000000000e+00">
<PP_R type="real" size="1073" columns="4">
1.5198032759241938e-04 1.5389200477817038e-04 1.5582772790276368e-04 1.5778779942687566e-04 
1.5977252561566997e-04 1.6178221658665149e-04 1.6381718635812310e-04 1.6587775289825189e-04 
1.6796423817475175e-04 1.7007696820519244e-04 1.7221627310793949e-04 1.7438248715373643e-04 
1.7657594881793502e-04 1.7879700083338280e-04 1.8104599024397632e-04 1.8332326845888638e-04 
1.8562919130746722e-04 1.8796411909485539e-04 1.9032841665826792e-04 1.9272245342400962e-04 
1.9514660346519575e-04 1.9760124556020213e-04 2.0008676325185013e-04 2.0260354490733579e-04 
2.0515198377891349e-04 2.0773247806534160e-04 2.1034543097410243e-04 2.1299125078440406e-04 
2.1567035091097468e-04 2.1838314996866002e-04 2.2113007183783193e-04 2.2391154573062113e-04 
2.2672800625798232e-04 2.2957989349760286e-04 2.3246765306266645e-04 2.3539173617148027e-04 
2.3835259971797908e-04 2.4135070634311593e-04 2.4438652450715052e-04 2.4746052856284781e-04 
2.5057319882959539e-04 2.5372502166845528e-04 2.5691648955815838e-04 2.6014810117205536e-04 
2.6342036145603616e-04 2.6673378170742737e-04 2.7008887965488445e-04 2.7348617953928766e-04 
2.7692621219565567e-04 2.8040951513609022e-04 2.8393663263376231e-04 2.8750811580795704e-04 
2.9112452271018663e-04 2.9478641841138676e-04 2.9849437509021161e-04 3.0224897212243585e-04 
3.0605079617148452e-04 3.0990044128010019e-04 3.1379850896316291e-04 3.1774560830167940e-04 
3.2174235603795153e-04 3.2578937667194450e-04 3.2988730255886610e-04 3.3403677400797318e-04 
3.3823843938262234e-04 3.4249295520157649e-04 3.4680098624158821e-04 3.5116320564127233e-04 
3.5558029500628468e-04 3.6005294451582577e-04 3.6458185303048083e-04 3.6916772820141946e-04 
3.7381128658096723e-04 3.7851325373456783e-04 3.8327436435415602e-04 3.8809536237295231e-04 
3.9297700108170550e-04 3.9792004324639557e-04 4.0292526122741724e-04 4.0799343710026386e-04 
4.1312536277772640e-04 4.1832184013363311e-04 4.2358368112814304e-04 4.2891170793461666e-04 
4.3430675306808307e-04 4.3976965951532024e-04 4.4530128086657511e-04 4.5090248144893778e-04 
4.5657413646139471e-04 4.6231713211158145e-04 4.6813236575425214e-04 4.7402074603149457e-04 
4.7998319301470715e-04 4.8602063834836130e-04 4.9213402539557440e-04 4.9832430938551002e-04 
5.0459245756263589e-04 5.1093944933785715e-04 5.1736627644155141e-04 5.2387394307853009e-04 
5.3046346608494452e-04 5.3713587508717102e-04 5.4389221266269141e-04 5.5073353450299696e-04 
5.5766090957854537e-04 5.6467542030578524e-04 5.7177816271628912e-04 5.7897024662800897e-04 
5.8625279581868807e-04 5.9362694820145495e-04 6.0109385600262178e-04 6.0865468594172392e-04 
6.1631061941382200e-04 6.2406285267409668e-04 6.3191259702476794e-04 6.3986107900436059e-04 
6.4790954057935505e-04 6.5605923933824721e-04 6.6431144868804842e-04 6.7266745805325977e-04 
6.8112857307734440e-04 6.8969611582673943e-04 6.9837142499742987e-04 7.0715585612412342e-04 
7.1605078179205663e-04 7.2505759185146148e-04 7.3417769363473431e-04 7.4341251217633362e-04 
7.5276349043544436e-04 7.6223208952144554e-04 7.7181978892220760e-04 7.8152808673526847e-04 
7.9135849990191298e-04 8.0131256444419764e-04 8.1139183570496049e-04 8.2159788859084194e-04 
8.3193231781836946e-04 8.4239673816313568e-04 8.5299278471210856e-04 8.6372211311912077e-04 
8.7458639986356414e-04 8.8558734251234592e-04 8.9672665998513678e-04 9.0800609282295412e-04 
9.1942740346012859e-04 9.3099237649968327e-04 9.4270281899218463e-04 9.5456056071809752e-04 
9.6656745447369023e-04 9.7872537636054207e-04 9.9103622607868229e-04 1.0035019272234265e-03 
1.0161244275859397e-03 1.0289056994575835e-03 1.0418477399380935e-03 1.0549525712476246e-03 
1.0682222410427304e-03 1.0816588227363145e-03 1.0952644158216021e-03 1.1090411462001957e-03 
1.1229911665142445e-03 1.1371166564828046e-03 1.1514198232424220e-03 1.1659029016920018e-03 
1.1805681548420208e-03 1.1954178741681164e-03 1.2104543799691485e-03 1.2256800217297394e-03 
1.2410971784873896e-03 1.2567082592042126e-03 1.2725157031433269e-03 1.2885219802500117e-03 
1.3047295915376289e-03 1.3211410694784157e-03 1.3377589783991936e-03 1.3545859148820351e-03 
1.3716245081700051e-03 1.3888774205779682e-03 1.4063473479085885e-03 1.4240370198735578e-03 
1.4419492005201056e-03 1.4600866886629047e-03 1.4784523183213763e-03 1.4970489591625193e-03 
1.5158795169493040e-03 1.5349469339946901e-03 1.5542541896213877e-03 1.5738043006273685e-03 
1.5936003217572508e-03 1.6136453461796155e-03 1.6339425059703047e-03 1.6544949726018353e-03 
1.6753059574389311e-03 1.6963787122403113e-03 1.7177165296667915e-03 1.7393227437957506e-03 
1.7612007306421092e-03 1.7833539086858214e-03 1.8057857394060252e-03 1.8284997278219146e-03 
1.8514994230403843e-03 1.8747884188106108e-03 1.8983703540855629e-03 1.9222489135906037e-03 
1.9464278283992421e-03 1.9709108765161030e-03 1.9957018834672702e-03 2.0208047228980164e-03 
2.0462233171780727e-03 2.0719616380145156e-03 2.0980237070723331e-03 2.1244135966028447e-03 
2.1511354300799788e-03 2.1781933828445800e-03 2.2055916827568235e-03 2.2333346108568048e-03 
2.2614265020334890e-03 2.2898717457020237e-03 2.3186747864896032e-03 2.3478401249299560e-03 
2.3773723181665426e-03 2.4072759806646467e-03 2.4375557849323705e-03 2.4682164622507334e-03 
2.4992628034129528e-03 2.5306996594729909e-03 2.5625319425035720e-03 2.5947646263636817e-03 
2.6274027474757476e-03 2.6604514056126037e-03 2.6939157646943125e-03 2.7278010535950713e-03 
2.7621125669602090e-03 2.7968556660334931e-03 2.8320357794948472e-03 2.8676584043085640e-03 
2.9037291065822524e-03 2.9402535224365271e-03 2.9772373588856722e-03 3.0146863947293854e-03 
3.0526064814556963e-03 3.0910035441553143e-03 3.1298835824474015e-03 3.1692526714170426e-03 
3.2091169625644883e-03 3.2494826847663323e-03 3.2903561452487969e-03 3.3317437305732385e-03 
3.3736519076340652e-03 3.4160872246692098e-03 3.4590563122832902e-03 3.5025658844836717e-03 
3.5466227397295291e-03 3.5912337619941285e-03 3.6364059218404621e-03 3.6821462775104073e-03 
3.7284619760276001e-03 3.7753602543141619e-03 3.8228484403214883e-03 3.8709339541752627e-03 
3.9196243093348512e-03 3.9689271137673130e-03 4.0188500711361456e-03 4.0694009820050059e-03 
4.1205877450565661e-03 4.1724183583266910e-03 4.2249009204541575e-03 4.2780436319460723e-03 
4.3318547964592245e-03 4.3863428220975520e-03 4.4415162227259145e-03 4.4973836193004145e-03 
4.5539537412154279e-03 4.6112354276675966e-03 4.6692376290369706e-03 4.7279694082855168e-03 
4.7874399423732386e-03 4.8476585236920796e-03 4.9086345615178819e-03 4.9703775834806186e-03 
5.0328972370530835e-03 5.0962032910583490e-03 5.1603056371961487e-03 5.2252142915884814e-03 
5.2909393963446591e-03 5.3574912211460110e-03 5.4248801648505715e-03 5.4931167571178946e-03 
5.5622116600543463e-03 5.6321756698790928e-03 5.7030197186110050e-03 5.7747548757768373e-03 
5.8473923501408398e-03 5.9209434914561610e-03 5.9954197922382777e-03 6.0708328895607054e-03 
6.1471945668733355e-03 6.2245167558436032e-03 6.3028115382208474e-03 6.3820911477241102e-03 
6.4623679719536678e-03 6.5436545543266361e-03 6.6259635960368860e-03 6.7093079580396418e-03 
6.7937006630610372e-03 6.8791548976329248e-03 6.9656840141533198e-03 7.0533015329727194e-03 
7.1420211445066975e-03 7.2318567113750622e-03 7.3228222705679037e-03 7.4149320356389206e-03 
7.5082003989263039e-03 7.6026419338015676e-03 7.6982713969466869e-03 7.7951037306598298e-03 
7.8931540651901548e-03 7.9924377211019124e-03 8.0929702116683284e-03 8.1947672452955967e-03 
8.2978447279773247e-03 8.4022187657798956e-03 8.5079056673590687e-03 8.6149219465082357e-03 
8.7232843247387302e-03 8.8330097338926335e-03 8.9441153187883558e-03 9.0566184398995827e-03 
9.1705366760678770e-03 9.2858878272493988e-03 9.4026899172962256e-03 9.5209611967725493e-03 
9.6407201458064140e-03 9.7619854769772588e-03 9.8847761382397873e-03 1.0009111315884658e-02 
1.0135010437536328e-02 1.0262493175188707e-02 1.0391579448278910e-02 1.0522289426799730e-02 
1.0654643534451261e-02 1.0788662451832092e-02 1.0924367119670727e-02 1.1061778742097607e-02 
1.1200918789958292e-02 1.1341809004168367e-02 1.1484471399110430e-02 1.1628928266073944e-02 
1.1775202176738270e-02 1.1923315986699537e-02 1.2073292839041910e-02 1.2225156167953688e-02 
1.2378929702388984e-02 1.2534637469775406e-02 1.2692303799768387e-02 1.2851953328052786e-02 
1.3013611000192195e-02 1.3177302075526781e-02 1.3343052131120097e-02 1.3510887065755539e-02 
1.3680833103983133e-02 1.3852916800217094e-02 1.4027165042885066e-02 1.4203605058629479e-02 
1.4382264416561749e-02 1.4563171032570064e-02 1.4746353173681219e-02 1.4931839462477453e-02 
1.5119658881568758e-02 1.5309840778121482e-02 1.5502414868443915e-02 1.5697411242629449e-02 
1.5894860369258277e-02 1.6094793100158145e-02 1.6297240675225009e-02 1.6502234727304384e-02 
1.6709807287133959e-02 1.6919990788348514e-02 1.7132818072547740e-02 1.7348322394427775e-02 
1.7566537426977388e-02 1.7787497266739370e-02 1.8011236439138219e-02 1.8237789903874830e-02 
1.8467193060388996e-02 1.8699481753390621e-02 1.8934692278460629e-02 1.9172861387722073e-02 
1.9414026295582837e-02 1.9658224684550429e-02 1.9905494711119937e-02 2.0155875011736116e-02 
2.0409404708830323e-02 2.0666123416933548e-02 2.0926071248866220e-02 2.1189288822005933e-02 
2.1455817264634039e-02 2.1725698222361950e-02 2.1998973864638380e-02 2.2275686891338419e-02 
2.2555880539435452e-02 2.2839598589757079e-02 2.3126885373825883e-02 2.3417785780786363e-02 
2.3712345264418944e-02 2.4010609850242212e-02 2.4312626142704571e-02 2.4618441332466143e-02 
2.4928103203772520e-02 2.5241660141921113e-02 2.5559161140821410e-02 2.5880655810650504e-02 
2.6206194385604609e-02 2.6535827731748392e-02 2.6869607354962813e-02 2.7207585408993068e-02 
2.7549814703597759e-02 2.7896348712800428e-02 2.8247241583245031e-02 2.8602548142656475e-02 
2.8962323908407524e-02 2.9326625096193586e-02 2.9695508628816415e-02 3.0069032145078476e-02 
3.0447254008789129e-02 3.0830233317884048e-02 3.1218029913659507e-02 3.1610704390122556e-02 
3.2008318103459034e-02 3.2410933181620610e-02 3.2818612534032343e-02 3.3231419861422529e-02 
3.3649419665775913e-02 3.4072677260412347e-02 3.4501258780192133e-02 3.4935231191849637e-02 
3.5374662304457183e-02 3.5819620780020107e-02 3.6270176144205503e-02 3.6726398797205663e-02 
3.7188360024738305e-02 3.7656132009185148e-02 3.8129787840870420e-02 3.8609401529481481e-02 
3.9095048015632967e-02 3.9586803182576354e-02 4.0084743868057028e-02 4.0588947876320135e-02 
4.1099493990267764e-02 4.1616461983768956e-02 4.2139932634124411e-02 4.2669987734688351e-02 
4.3206710107648601e-02 4.3750183616967898e-02 4.4300493181487793e-02 4.4857724788197308e-02 
4.5421965505668772e-02 4.5993303497662202e-02 4.6571828036901242e-02 4.7157629519022172e-02 
4.7750799476698351e-02 4.8351430593942563e-02 4.8959616720588822e-02 4.9575452886956785e-02 
5.0199035318700382e-02 5.0830461451843216e-02 5.1469829948003316e-02 5.2117240709808978e-02 
5.2772794896508900e-02 5.3436594939778481e-02 5.4108744559724954e-02 5.4789348781094031e-02 
5.5478513949679946e-02 5.6176347748942417e-02 5.6882959216832320e-02 5.7598458762829090e-02 
5.8322958185192571e-02 5.9056570688431474e-02 5.9799410900991966e-02 6.0551594893168581e-02 
6.1313240195240391e-02 6.2084465815835509e-02 6.2865392260526176e-02 6.3656141550658185e-02 
6.4456837242416923e-02 6.5267604446133165e-02 6.6088569845832154e-02 6.6919861719027793e-02 
6.7761609956766555e-02 6.8613946083923127e-02 6.9477003279751398e-02 7.0350916398694258e-02 
7.1235821991454465e-02 7.2131858326331247e-02 7.3039165410824933e-02 7.3957885013513316e-02 
7.4888160686203617e-02 7.5830137786362287e-02 7.6783963499827676e-02 7.7749786863808110e-02 
7.8727758790169119e-02 7.9718032089014026e-02 8.0720761492560439e-02 8.1736103679317731e-02 
8.2764217298568310e-02 8.3805262995156823e-02 8.4859403434591543e-02 8.5926803328460713e-02 
8.7007629460169392e-02 8.8102050710999621e-02 8.9210238086498375e-02 9.0332364743197877e-02 
9.1468606015671097e-02 9.2619139443928619e-02 9.3784144801159361e-02 9.4963804121820497e-02 
9.6158301730081122e-02 9.7367824268622671e-02 9.8592560727802578e-02 9.9832702475184290e-02 
1.0108844328543891e-01 1.0235997937062298e-01 1.0364750941083672e-01 1.0495123458526839e-01 
1.0627135860362896e-01 1.0760808773798201e-01 1.0896163085497457e-01 1.1033219944847238e-01 
1.1172000767260661e-01 1.1312527237523580e-01 1.1454821313182871e-01 1.1598905227977369e-01 
1.1744801495311895e-01 1.1892532911775049e-01 1.2042122560701211e-01 1.2193593815777364e-01 
1.2346970344695300e-01 1.2502276112849700e-01 1.2659535387082815e-01 1.2818772739476184e-01 
1.2980013051190081e-01 1.3143281516351280e-01 1.3308603645989622e-01 1.3476005272024213e-01 
1.3645512551299707e-01 1.3817151969673339e-01 1.3990950346153458e-01 1.4166934837089976e-01 
1.4345132940417638e-01 1.4525572499952641e-01 1.4708281709743257e-01 1.4893289118475264e-01 
1.5080623633932663e-01 1.5270314527514636e-01 1.5462391438809225e-01 1.5656884380224598e-01 
1.5853823741678569e-01 1.6053240295347035e-01 1.6255165200472219e-01 1.6459630008231368e-01 
1.6666666666666666e-01 1.6876307525677245e-01 1.7088585342073823e-01 1.7303533284697092e-01 
1.7521184939600412e-01 1.7741574315297656e-01 1.7964735848077196e-01 1.8190704407382532e-01 
1.8419515301260803e-01 1.8651204281879688e-01 1.8885807551113773e-01 1.9123361766201208e-01 
1.9363904045471392e-01 1.9607471974144852e-01 1.9854103610205984e-01 2.0103837490349677e-01 
2.0356712636002836e-01 2.0612768559421421e-01 2.0872045269864417e-01 2.1134583279845340e-01 
2.1400423611462357e-01 2.1669607802808188e-01 2.1942177914460367e-01 2.2218176536053391e-01 
2.2497646792933401e-01 2.2780632352896604e-01 2.3067177433012528e-01 2.3357326806532897e-01 
2.3651125809887633e-01 2.3948620349768757e-01 2.4249856910303355e-01 2.4554882560316929e-01 
2.4863744960687847e-01 2.5176492371794557e-01 2.5493173661056329e-01 2.5813838310568887e-01 
2.6138536424836151e-01 2.6467318738599066e-01 2.6800236624763063e-01 2.7137342102425183e-01 
2.7478687845002137e-01 2.7824327188460718e-01 2.8174314139651530e-01 2.8528703384747756e-01 
2.8887550297789938e-01 2.9250910949338310e-01 2.9618842115233979e-01 2.9991401285470154e-01 
3.0368646673175165e-01 3.0750637223708349e-01 3.1137432623870370e-01 3.1529093311229500e-01 
3.1925680483564944e-01 3.2327256108429253e-01 3.2733882932830810e-01 3.3145624493038200e-01 
3.3562545124507953e-01 3.3984709971936927e-01 3.4412184999441459e-01 3.4845037000864282e-01 
3.5283333610211248e-01 3.5727143312219328e-01 3.6176535453057385e-01 3.6631580251161716e-01 
3.7092348808207820e-01 3.7558913120220144e-01 3.8031346088821733e-01 3.8509721532625080e-01 
3.8994114198766533e-01 3.9484599774585694e-01 3.9981254899451635e-01 4.0484157176738145e-01 
4.0993385185949177e-01 4.1509018494997202e-01 4.2031137672635827e-01 4.2559824301048782e-01 
4.3095160988597447e-01 4.3637231382728364e-01 4.4186120183043465e-01 4.4741913154534535e-01 
4.5304697140984085e-01 4.5874560078535120e-01 4.6451591009430859e-01 4.7035880095928323e-01 
4.7627518634386096e-01 4.8226599069529352e-01 4.8833215008895081e-01 4.9447461237457807e-01 
5.0069433732440538e-01 5.0699229678311097e-01 5.1336947481967188e-01 5.1982686788113253e-01 
5.2636548494829483e-01 5.3298634769337905e-01 5.3969049063966057e-01 5.4647896132311224e-01 
5.5335282045609191e-01 5.6031314209307170e-01 5.6736101379846959e-01 5.7449753681657956e-01 
5.8172382624364027e-01 5.8904101120207886e-01 5.9645023501693006e-01 6.0395265539449017e-01 
6.1154944460320781e-01 6.1924178965685062e-01 6.2703089249998578e-01 6.3491797019577711e-01 
6.4290425511616223e-01 6.5099099513440917e-01 6.5917945382009624e-01 6.6747091063655484e-01 
6.7586666114077942e-01 6.8436801718586848e-01 6.9297630712600178e-01 7.0169287602399333e-01 
7.1051908586147039e-01 7.1945631575167412e-01 7.2850596215495944e-01 7.3766943909698968e-01 
7.4694817838967742e-01 7.5634362985491788e-01 7.6585726155111500e-01 7.7549056000257810e-01 
7.8524503043179072e-01 7.9512219699460041e-01 8.0512360301838060e-01 8.1525081124316767e-01 
8.2550540406585216e-01 8.3588898378742715e-01 8.4640317286334688e-01 8.5704961415704861e-01 
8.6782997119664174e-01 8.7874592843484833e-01 8.8979919151219666e-01 9.0099148752352776e-01 
9.1232456528786754e-01 9.2380019562167071e-01 9.3542017161552582e-01 9.4718630891432465e-01 
9.5910044600095512e-01 9.7116444448357997e-01 9.8338018938650296e-01 9.9574958944472025e-01 
1.0082745774021584e+00 1.0209571103136643e+00 1.0337991698508120e+00 1.0468027626115277e+00 
1.0599699204336381e+00 1.0733027007123439e+00 1.0868031867216854e+00 1.1004734879400724e+00 
1.1143157403798787e+00 1.1283321069212122e+00 1.1425247776498637e+00 1.1568959701995059e+00 
1.1714479300982168e+00 1.1861829311193328e+00 1.2011032756367441e+00 1.2162112949846395e+00 
1.2315093498217751e+00 1.2469998305003476e+00 1.2626851574394748e+00 1.2785677815034047e+00 
1.2946501843844629e+00 1.3109348789908153e+00 1.3274244098391301e+00 1.3441213534521459e+00 
1.3610283187612744e+00 1.3781479475142457e+00 1.3954829146878776e+00 1.4130359289060637e+00 
1.4308097328629827e+00 1.4488071037516670e+00 1.4670308536979355e+00 1.4854838301997895e+00 
1.5041689165723551e+00 1.5230890323983879e+00 1.5422471339844817e+00 1.5616462148229893e+00 
1.5812893060597544e+00 1.6011794769677519e+00 1.6213198354266478e+00 1.6417135284084301e+00 
1.6623637424691211e+00 1.6832737042466757e+00 1.7044466809651684e+00 1.7258859809452824e+00 
1.7475949541212616e+00 1.7695769925643352e+00 1.7918355310127259e+00 1.8143740474083581e+00 
1.8371960634402675e+00 1.8603051450948940e+00 1.8837049032132649e+00 1.9073989940551870e+00 
1.9313911198705671e+00 1.9556850294778689e+00 1.9802845188498992e+00 2.0051934317069233e+00 
2.0304156601172454e+00 2.0559551451053779e+00 2.0818158772678022e+00 2.1080018973965369e+00 
2.1345172971105071e+00 2.1613662194948557e+00 2.1885528597483384e+00 2.2160814658387982e+00 
2.2439563391669517e+00 2.2721818352384608e+00 2.3007623643445156e+00 2.3297023922509412e+00 
2.3590064408959681e+00 2.3886790890968248e+00 2.4187249732651543e+00 2.4491487881314904e+00 
2.4799552874788082e+00 2.5111492848852985e+00 2.5427356544765298e+00 2.5747193316870045e+00 
2.6071053140313620e+00 2.6398986618852387e+00 2.6731044992759458e+00 2.7067280146831432e+00 
2.7407744618495102e+00 2.7752491606016907e+00 2.8101574976815082e+00 2.8455049275876436e+00 
2.8812969734279439e+00 2.9175392277823815e+00 2.9542373535769406e+00 2.9913970849684426e+00 
3.0290242282405111e+00 3.0671246627108455e+00 3.1057043416498362e+00 3.1447692932108140e+00 
3.1843256213719449e+00 3.2243795068899694e+00 3.2649372082660033e+00 3.3060050627233886e+00 
3.3475894871979448e+00 3.3896969793406044e+00 3.4323341185326726e+00 3.4755075669139059e+00 
3.5192240704234377e+00 3.5634904598538903e+00 3.6083136519186794e+00 3.6537006503327452e+00 
3.6996585469069441e+00 3.7461945226561042e+00 3.7933158489211216e+00 3.8410298885051000e+00 
3.8893440968237871e+00 3.9382660230705415e+00 3.9878033113958584e+00 4.0379637021018295e+00 
4.0887550328515623e+00 4.1401852398938077e+00 4.1922623593030659e+00 4.2449945282351829e+00 
4.2983899861988437e+00 4.3524570763429988e+00 4.4072042467604673e+00 4.4626400518080258e+00 
4.5187731534429849e+00 4.5756123225766832e+00 4.6331664404449482e+00 4.6914444999957761e+00 
4.7504556072945530e+00 4.8102089829468389e+00 4.8707139635391572e+00 4.9319800030978298e+00 
4.9940166745661712e+00 5.0568336713003266e+00 5.1204408085838224e+00 5.1848480251612772e+00 
5.2500653847913279e+00 5.3161030778190836e+00 5.3829714227684535e+00 5.4506808679543619e+00 
5.5192419931153855e+00 5.5886655110668277e+00 5.6589622693745918e+00 5.7301432520502047e+00 
5.8022195812670079e+00 5.8752025190980897e+00 5.9491034692759852e+00 6.0239339789744895e+00 
6.0997057406130066e+00 6.1764305936834321e+00 6.2541205266001674e+00 6.3327876785733004e+00 
6.4124443415053562e+00 6.4931029619120038e+00 6.5747761428667593e+00 6.6574766459703225e+00 
6.7412173933445727e+00 6.8260114696516334e+00 6.9118721241384691e+00 6.9988127727070015e+00 
7.0868470000104642e+00 7.1759885615759940e+00 7.2662513859539182e+00 7.3576495768942145e+00 
7.4501974155501429e+00 7.5439093627097940e+00 7.6388000610555862e+00 7.7348843374521623e+00 
7.8321772052632248e+00 7.9306938666972835e+00 8.0304497151831367e+00 8.1314603377750760e+00 
8.2337415175883653e+00 8.3373092362654688e+00 8.4421796764731116e+00 8.5483692244309513e+00 
8.6558944724719158e+00 8.7647722216347415e+00 8.8750194842892824e+00 8.9866534867945944e+00 
9.0996916721907066e+00 9.2141517029240809e+00 9.3300514636073597e+00 9.4474090638139785e+00 
9.5662428409077069e+00 9.6865713629079977e+00 9.8084134313912426e+00 9.9317880844284989e+00 
1.0056714599560342e+01 1.0183212496808896e+01 1.0311301541727980e+01 1.0441001748491486e+01 
1.0572333383020558e+01 1.0705316966150326e+01 1.0839973276836169e+01 1.0976323355400616e+01 
1.1114388506820868e+01 1.1254190304057692e+01 1.1395750591426371e+01 1.1539091488009774e+01 
1.1684235391114642e+01 1.1831204979771156e+01 1.1980023218276513e+01 1.2130713359783291e+01 
1.2283298949932641e+01 1.2437803830533484e+01 1.2594252143287781e+01 1.2752668333562648e+01 
1.2913077154210162e+01 1.3075503669434859e+01 1.3239973258710222e+01 1.3406511620744219e+01 
1.3575144777494691e+01 1.3745899078235519e+01 1.3918801203673546e+01 1.4093878170117668e+01 
1.4271157333700110e+01 1.4450666394650817e+01 1.4632433401625820e+01 1.4816486756089722e+01 
1.5002855216753636e+01 1.5191567904068741e+01 1.5382654304776315e+01 1.5576144276515292e+01 
1.5772068052487358e+01 1.5970456246181145e+01 1.6171339856155573e+01 1.6374750270883343e+01 
1.6580719273655657e+01 1.6789279047548188e+01 1.7000462180449947e+01 1.7214301670155141e+01 
1.7430830929519036e+01 1.7650083791679005e+01 1.7872094515340759e+01 1.8096897790131599e+01 
1.8324528742020600e+01 1.8555022938807060e+01 1.8788416395678222e+01 1.9024745580836505e+01 
1.9264047421197944e+01 1.9506359308161986e+01 1.9751719103453890e+01 2.0000165145040928e+01 
2.0251736253122495e+01 2.0506471736196090e+01 2.0764411397199243e+01 2.1025595539728695e+01 
2.1290064974338172e+01 2.1557861024914828e+01 2.1829025535136434e+01 2.2103600875009445e+01 
2.2381629947489255e+01 2.2663156195184186e+01 2.2948223607143120e+01 2.3236876725729193e+01 
2.3529160653579499e+01 2.3825121060652336e+01 2.4124804191363523e+01 2.4428256871811865e+01 
2.4735526517096101e+01 2.5046661138723497e+01 2.5361709352111603e+01 2.5680720384184820e+01 
2.6003744081065850e+01 2.6330830915864578e+01 2.6662031996564448e+01 2.6997399074008058e+01 
2.7336984549983665e+01 2.7680841485412685e+01 2.8029023608640909e+01 2.8381585323833523e+01 
2.8738581719475722e+01 2.9100068576980743e+01 2.9466102379405410e+01 2.9836740320276110e+01 
3.0212040312525229e+01 3.0592060997539999e+01 3.0976861754325721e+01 3.1366502708783415e+01 
3.1761044743105000e+01 3.2160549505286099e+01 3.2565079418758494e+01 3.2974697692144289e+01 
3.3389468329131972e+01 3.3809456138477479e+01 3.4234726744130562e+01 3.4665346595488437e+01 
3.5101382977779124e+01 3.5542904022574341e+01 3.5989978718435687e+01 3.6442676921694030e+01 
3.6901069367364528e+01 3.7365227680199546e+01 3.7835224385879684e+01 3.8311132922346474e+01 
3.8793027651277050e+01 3.9280983869703100e+01 3.9775077821776641e+01 4.0275386710682795e+01 
4.0781988710703395e+01 4.1294962979431723e+01 4.1814389670140763e+01 4.2340349944307881e+01 
4.2872925984295826e+01 4.3412201006194465e+01 4.3958259272823206e+01 4.4511186106897021e+01 
4.5071067904358834e+01 4.5637992147878428e+01 4.6212047420522332e+01 4.6793323419594920e+01 
4.7381910970653486e+01 4.7977902041700560e+01 4.8581389757553360e+01 4.9192468414395385e+01 
4.9811233494510098e+01 5.0437781681199972e+01 5.1072210873894100e+01 5.1714620203444404e+01 
5.2365110047615701e+01 5.3023782046769675e+01 5.3690739119746091e+01 5.4366085479944722e+01 
5.5049926651608153e+01 5.5742369486310842e+01 5.6443522179654593e+01 5.7153494288174066e+01 
5.7872396746455848e+01 5.8600341884471469e+01 5.9337443445129850e+01 6.0083816602049616e+01 
6.0839577977554818e+01 6.1604845660898206e+01 6.2379739226712026e+01 6.3164379753692593e+01 
6.3958889843518705e+01 6.4763393640008132e+01 6.5578016848516071e+01 6.6402886755575992e+01 
6.7238132248789185e+01 6.8083883836963423e+01 6.8940273670504794e+01 6.9807435562067383e+01 
7.0685505007460762e+01 7.1574619206822319e+01 7.2474917086054774e+01 7.3386539318533153e+01 
7.4309628347086260e+01 7.5244328406252592e+01 7.6190785544818155e+01 7.7149147648636600e+01 
7.8119564463736168e+01 7.9102187619718819e+01 8.0097170653451556e+01 8.1104669033057874e+01 
8.2124840182209468e+01 8.3157843504723672e+01 8.4203840409471582e+01 8.5262994335597369e+01 
8.6335470778057001e+01 8.7421437313476744e+01 8.8521063626336854e+01 8.9634521535486229e+01 
9.0761985020988234e+01 9.1903630251306467e+01 9.3059635610830995e+01 9.4230181727750860e+01 
9.5415451502278643e+01 9.6615630135227732e+01 9.7830905156951474e+01 9.9061466456644709e+01 
1.0030750631201370e+02 
</PP_R>
<PP_RAB type="real" size="1073" columns="4">
1.8997540949052425e-06 1.9236500597271300e-06 1.9478465987845461e-06 1.9723474928359458e-06 
1.9971565701958746e-06 2.0222777073331438e-06 2.0477148294765388e-06 2.0734719112281487e-06 
2.0995529771843971e-06 2.1259621025649058e-06 2.1527034138492439e-06 2.1797810894217053e-06 
2.2071993602241880e-06 2.2349625104172852e-06 2.2630748780497040e-06 2.2915408557360798e-06 
2.3203648913433402e-06 2.3495514886856924e-06 2.3791052082283491e-06 2.4090306678001206e-06 
2.4393325433149468e-06 2.4700155695025270e-06 2.5010845406481266e-06 2.5325443113416976e-06 
2.5643997972364187e-06 2.5966559758167703e-06 2.6293178871762804e-06 2.6623906348050508e-06 
2.6958793863871837e-06 2.7297893746082504e-06 2.7641258979728992e-06 2.7988943216327642e-06 
2.8341000782247790e-06 2.8697486687200358e-06 2.9058456632833308e-06 2.9423967021435036e-06 
2.9794074964747386e-06 3.0168838292889492e-06 3.0548315563393816e-06 3.0932566070355978e-06 
3.1321649853699427e-06 3.1715627708556910e-06 3.2114561194769798e-06 3.2518512646506920e-06 
3.2927545182004521e-06 3.3341722713428422e-06 3.3761109956860560e-06 3.4185772442410959e-06 
3.4615776524456959e-06 3.5051189392011279e-06 3.5492079079220291e-06 3.5938514475994632e-06 
3.6390565338773332e-06 3.6848302301423346e-06 3.7311796886276454e-06 3.7781121515304485e-06 
3.8256349521435568e-06 3.8737555160012528e-06 3.9224813620395362e-06 3.9718201037709927e-06 
4.0217794504743943e-06 4.0723672083993064e-06 4.1235912819858267e-06 4.1754596750996649e-06 
4.2279804922827794e-06 4.2811619400197064e-06 4.3350123280198526e-06 4.3895400705159040e-06 
4.4447536875785587e-06 4.5006618064478226e-06 4.5572731628810102e-06 4.6145966025177438e-06 
4.6726410822620903e-06 4.7314156716820986e-06 4.7909295544269508e-06 4.8511920296619046e-06 
4.9122125135213193e-06 4.9740005405799448e-06 5.0365657653427159e-06 5.0999179637532987e-06 
5.1640670347215805e-06 5.2290230016704140e-06 5.2947960141017886e-06 5.3613963491827086e-06 
5.4288344133510391e-06 5.4971207439415032e-06 5.5662660108321892e-06 5.6362810181117229e-06 
5.7071767057674346e-06 5.7789641513947683e-06 5.8516545719281523e-06 5.9252593253936827e-06 
5.9997899126838397e-06 6.0752579793545166e-06 6.1516753174446805e-06 6.2290538673188756e-06 
6.3074057195329489e-06 6.3867431167232148e-06 6.4670784555193927e-06 6.5484242884816262e-06 
6.6307933260618070e-06 6.7141984385896379e-06 6.7986526582836432e-06 6.8841691812874626e-06 
6.9707613697318172e-06 7.0584427538223161e-06 7.1472270339536143e-06 7.2371280828501125e-06 
7.3281599477336009e-06 7.4203368525181870e-06 7.5136732000327725e-06 7.6081835742715496e-06 
7.7038827426727757e-06 7.8007856584262085e-06 7.8989074628095992e-06 7.9982634875545071e-06 
8.0988692572419391e-06 8.2007404917280897e-06 8.3038931086006059e-06 8.4083432256657467e-06 
8.5141071634668060e-06 8.6212014478342432e-06 8.7296428124678740e-06 8.8394482015515424e-06 
8.9506347724007082e-06 9.0632198981432696e-06 9.1772211704341793e-06 9.2926564022041705e-06 
9.4095436304430545e-06 9.5279011190180700e-06 9.6477473615275949e-06 9.7691010841908572e-06 
9.8919812487739129e-06 1.0016407055552472e-05 1.0142397946312007e-05 1.0269973607385525e-05 
1.0399153972729620e-05 1.0529959227039196e-05 1.0662409808901358e-05 1.0796526413989010e-05 
1.0932329998294552e-05 1.1069841781404325e-05 1.1209083249814210e-05 1.1350076160286927e-05 
1.1492842543251609e-05 1.1637404706246042e-05 1.1783785237402308e-05 1.1932007008976219e-05 
1.2082093180921128e-05 1.2234067204506776e-05 1.2387952825983529e-05 1.2543774090292832e-05 
1.2701555344824247e-05 1.2861321243219794e-05 1.3023096749226169e-05 1.3186907140595307e-05 
1.3352778013034131e-05 1.3520735284203931e-05 1.3690805197770026e-05 1.3863014327502447e-05 
1.4037389581428057e-05 1.4213958206035059e-05 1.4392747790530277e-05 1.4573786271150023e-05 
1.4757101935525262e-05 1.4942723427101456e-05 1.5130679749614356e-05 1.5321000271621743e-05 