<UPF version="2.0.1">
  <PP_INFO>
Converted from CP2K GTH format
       <PP_INPUTFILE>
Cu
    1    0   10    0
    0.53000000000000       0
       3
    0.43135505000000       3    9.69380507000000   -6.47016535000000    1.93595215000000
                                                   11.50177396000000   -4.99860696000000
                                                                        3.96752127000000
    0.56139155000000       2    2.54547330000000   -0.78463573000000
                                                    0.92839352000000
    0.26455485000000       1  -12.82861406000000
       </PP_INPUTFILE>  </PP_INFO>
  <PP_HEADER
    generated="Generated in analytical, separable form"
    author="Goedecker/Hartwigsen/Hutter/Teter"
    date="Phys.Rev.B58, 3641 (1998); B54, 1703 (1996)"
    comment="This file generated by CP2K ATOM code"
    element="Cu"
    pseudo_type="NC"
    relativistic="no"
    is_ultrasoft="false"
    is_paw="false"
    is_coulomb="false"
    has_so="false"
    has_wfc="true"
    has_gipaw="false"
    paw_as_gipaw="false"
    core_correction="false"
    functional="PBE"
    z_valence="11.0000000000"
    total_psenergy="-95.9827480000"
    wfc_cutoff="0.0000000000"
    rho_cutoff="0.0000000000"
    l_max="2"
    l_max_rho="0"
    l_local="-3"
    mesh_size="1199"
    number_of_wfc="2"
    number_of_proj="6"/>
  <PP_MESH dx="1.2500000000000001e-02" mesh="1199" xmin="-7.0000000000000000e+00" rmax="1.0025371972764924e+02" zmesh="2.9000000000000000e+01">
    <PP_R type="real" size="1199" columns="4">
       3.14442057088e-05  3.18397251265e-05  3.22402195661e-05  3.26457516056e-05
       3.30563846101e-05  3.34721827421e-05  3.38932109706e-05  3.43195350824e-05
       3.47512216913e-05  3.51883382494e-05  3.56309530568e-05  3.60791352732e-05
       3.65329549278e-05  3.69924829310e-05  3.74577910850e-05  3.79289520949e-05
       3.84060395809e-05  3.88891280886e-05  3.93782931017e-05  3.98736110532e-05
       4.03751593376e-05  4.08830163228e-05  4.13972613625e-05  4.19179748084e-05
       4.24452380232e-05  4.29791333928e-05  4.35197443395e-05  4.40671553347e-05
       4.46214519126e-05  4.51827206832e-05  4.57510493458e-05  4.63265267029e-05
       4.69092426741e-05  4.74992883098e-05  4.80967558061e-05  4.87017385182e-05
       4.93143309761e-05  4.99346288986e-05  5.05627292084e-05  5.11987300475e-05
       5.18427307923e-05  5.24948320693e-05  5.31551357707e-05  5.38237450701e-05
       5.45007644392e-05  5.51862996636e-05  5.58804578596e-05  5.65833474909e-05
       5.72950783853e-05  5.80157617523e-05  5.87455102001e-05  5.94844377534e-05
       6.02326598711e-05  6.09902934644e-05  6.17574569152e-05  6.25342700943e-05
       6.33208543803e-05  6.41173326786e-05  6.49238294407e-05  6.57404706831e-05
       6.65673840079e-05  6.74046986218e-05  6.82525453570e-05  6.91110566913e-05
       6.99803667688e-05  7.08606114210e-05  7.17519281879e-05  7.26544563396e-05
       7.35683368979e-05  7.44937126584e-05  7.54307282132e-05  7.63795299727e-05
       7.73402661892e-05  7.83130869796e-05  7.92981443491e-05  8.02955922151e-05
       8.13055864307e-05  8.23282848096e-05  8.33638471505e-05  8.44124352621e-05
       8.54742129885e-05  8.65493462345e-05  8.76380029920e-05  8.87403533658e-05
       8.98565696003e-05  9.09868261066e-05  9.21312994896e-05  9.32901685756e-05
       9.44636144403e-05  9.56518204369e-05  9.68549722250e-05  9.80732577996e-05
       9.93068675203e-05  1.00555994141e-04  1.01820832840e-04  1.03101581252e-04
       1.04398439496e-04  1.05711610208e-04  1.07041298574e-04  1.08387712361e-04
       1.09751061949e-04  1.11131560363e-04  1.12529423310e-04  1.13944869208e-04
       1.15378119223e-04  1.16829397305e-04  1.18298930217e-04  1.19786947578e-04
       1.21293681894e-04  1.22819368593e-04  1.24364246070e-04  1.25928555712e-04
       1.27512541948e-04  1.29116452277e-04  1.30740537315e-04  1.32385050828e-04
       1.34050249775e-04  1.35736394346e-04  1.37443748004e-04  1.39172577528e-04
       1.40923153050e-04  1.42695748102e-04  1.44490639655e-04  1.46308108164e-04
       1.48148437612e-04  1.50011915555e-04  1.51898833166e-04  1.53809485278e-04
       1.55744170435e-04  1.57703190935e-04  1.59686852880e-04  1.61695466221e-04
       1.63729344807e-04  1.65788806437e-04  1.67874172904e-04  1.69985770053e-04
       1.72123927824e-04  1.74288980310e-04  1.76481265803e-04  1.78701126852e-04
       1.80948910317e-04  1.83224967416e-04  1.85529653790e-04  1.87863329550e-04
       1.90226359337e-04  1.92619112379e-04  1.95041962550e-04  1.97495288424e-04
       1.99979473339e-04  2.02494905454e-04  2.05041977809e-04  2.07621088391e-04
       2.10232640190e-04  2.12877041267e-04  2.15554704815e-04  2.18266049224e-04
       2.21011498147e-04  2.23791480566e-04  2.26606430860e-04  2.29456788869e-04
       2.32342999968e-04  2.35265515134e-04  2.38224791016e-04  2.41221290005e-04
       2.44255480312e-04  2.47327836035e-04  2.50438837235e-04  2.53588970013e-04
       2.56778726584e-04  2.60008605353e-04  2.63279110995e-04  2.66590754534e-04
       2.69944053422e-04  2.73339531616e-04  2.76777719669e-04  2.80259154803e-04
       2.83784381001e-04  2.87353949085e-04  2.90968416809e-04  2.94628348939e-04
       2.98334317349e-04  3.02086901103e-04  3.05886686549e-04  3.09734267413e-04
       3.13630244886e-04  3.17575227723e-04  3.21569832335e-04  3.25614682888e-04
       3.29710411398e-04  3.33857657830e-04  3.38057070201e-04  3.42309304676e-04
       3.46615025677e-04  3.50974905981e-04  3.55389626828e-04  3.59859878027e-04
       3.64386358064e-04  3.68969774211e-04  3.73610842636e-04  3.78310288515e-04
       3.83068846146e-04  3.87887259064e-04  3.92766280156e-04  3.97706671777e-04
       4.02709205876e-04  4.07774664107e-04  4.12903837959e-04  4.18097528875e-04
       4.23356548382e-04  4.28681718210e-04  4.34073870429e-04  4.39533847573e-04
       4.45062502775e-04  4.50660699899e-04  4.56329313674e-04  4.62069229832e-04
       4.67881345248e-04  4.73766568076e-04  4.79725817894e-04  4.85760025848e-04
       4.91870134793e-04  4.98057099448e-04  5.04321886538e-04  5.10665474948e-04
       5.17088855879e-04  5.23593032994e-04  5.30179022587e-04  5.36847853730e-04
       5.43600568443e-04  5.50438221851e-04  5.57361882351e-04  5.64372631778e-04
       5.71471565578e-04  5.78659792972e-04  5.85938437137e-04  5.93308635374e-04
       6.00771539293e-04  6.08328314987e-04  6.15980143218e-04  6.23728219599e-04
       6.31573754784e-04  6.39517974653e-04  6.47562120506e-04  6.55707449259e-04
       6.63955233634e-04  6.72306762365e-04  6.80763340396e-04  6.89326289084e-04
       6.97996946407e-04  7.06776667173e-04  7.15666823231e-04  7.24668803686e-04
       7.33784015116e-04  7.43013881792e-04  7.52359845898e-04  7.61823367761e-04
       7.71405926075e-04  7.81109018134e-04  7.90934160067e-04  8.00882887071e-04
       8.10956753655e-04  8.21157333883e-04  8.31486221614e-04  8.41945030760e-04
       8.52535395529e-04  8.63258970688e-04  8.74117431818e-04  8.85112475575e-04
       8.96245819957e-04  9.07519204572e-04  9.18934390909e-04  9.30493162614e-04
       9.42197325769e-04  9.54048709173e-04  9.66049164628e-04  9.78200567231e-04
       9.90504815663e-04  1.00296383249e-03  1.01557956445e-03  1.02835398279e-03
       1.04128908353e-03  1.05438688781e-03  1.06764944218e-03  1.08107881895e-03
       1.09467711649e-03  1.10844645955e-03  1.12238899962e-03  1.13650691527e-03
       1.15080241243e-03  1.16527772480e-03  1.17993511420e-03  1.19477687085e-03
       1.20980531382e-03  1.22502279134e-03  1.24043168115e-03  1.25603439094e-03
       1.27183335866e-03  1.28783105293e-03  1.30402997343e-03  1.32043265125e-03
       1.33704164937e-03  1.35385956296e-03  1.37088901987e-03  1.38813268097e-03
       1.40559324063e-03  1.42327342710e-03  1.44117600293e-03  1.45930376544e-03
       1.47765954714e-03  1.49624621615e-03  1.51506667667e-03  1.53412386944e-03
       1.55342077219e-03  1.57296040010e-03  1.59274580626e-03  1.61278008221e-03
       1.63306635832e-03  1.65360780437e-03  1.67440763000e-03  1.69546908523e-03
       1.71679546096e-03  1.73839008947e-03  1.76025634497e-03  1.78239764411e-03
       1.80481744650e-03  1.82751925529e-03  1.85050661768e-03  1.87378312550e-03
       1.89735241574e-03  1.92121817116e-03  1.94538412082e-03  1.96985404071e-03
       1.99463175430e-03  2.01972113317e-03  2.04512609757e-03  2.07085061708e-03
       2.09689871121e-03  2.12327445004e-03  2.14998195482e-03  2.17702539865e-03
       2.20440900713e-03  2.23213705900e-03  2.26021388683e-03  2.28864387768e-03
       2.31743147378e-03  2.34658117328e-03  2.37609753085e-03  2.40598515850e-03
       2.43624872622e-03  2.46689296277e-03  2.49792265635e-03  2.52934265544e-03
       2.56115786946e-03  2.59337326961e-03  2.62599388961e-03  2.65902482649e-03
       2.69247124142e-03  2.72633836045e-03  2.76063147540e-03  2.79535594464e-03
       2.83051719393e-03  2.86612071729e-03  2.90217207784e-03  2.93867690868e-03
       2.97564091377e-03  3.01306986881e-03  3.05096962214e-03  3.08934609568e-03
       3.12820528584e-03  3.16755326444e-03  3.20739617968e-03  3.24774025710e-03
       3.28859180054e-03  3.32995719314e-03  3.37184289832e-03  3.41425546082e-03
       3.45720150768e-03  3.50068774931e-03  3.54472098053e-03  3.58930808161e-03
       3.63445601937e-03  3.68017184829e-03  3.72646271155e-03  3.77333584218e-03
       3.82079856422e-03  3.86885829380e-03  3.91752254037e-03  3.96679890780e-03
       4.01669509564e-03  4.06721890025e-03  4.11837821609e-03  4.17018103691e-03
       4.22263545700e-03  4.27574967247e-03  4.32953198252e-03  4.38399079076e-03
       4.43913460648e-03  4.49497204601e-03  4.55151183406e-03  4.60876280510e-03
       4.66673390471e-03  4.72543419098e-03  4.78487283596e-03  4.84505912706e-03
       4.90600246850e-03  4.96771238281e-03  5.03019851228e-03  5.09347062051e-03
       5.15753859388e-03  5.22241244316e-03  5.28810230500e-03  5.35461844358e-03
       5.42197125219e-03  5.49017125484e-03  5.55922910792e-03  5.62915560186e-03
       5.69996166281e-03  5.77165835437e-03  5.84425687929e-03  5.91776858124e-03
       5.99220494657e-03  6.06757760611e-03  6.14389833700e-03  6.22117906450e-03
       6.29943186389e-03  6.37866896232e-03  6.45890274076e-03  6.54014573589e-03
       6.62241064209e-03  6.70571031344e-03  6.79005776566e-03  6.87546617823e-03
       6.96194889637e-03  7.04951943319e-03  7.13819147176e-03  7.22797886728e-03
       7.31889564920e-03  7.41095602345e-03  7.50417437466e-03  7.59856526839e-03
       7.69414345339e-03  7.79092386397e-03  7.88892162225e-03  7.98815204058e-03
       8.08863062392e-03  8.19037307226e-03  8.29339528305e-03  8.39771335372e-03
       8.50334358419e-03  8.61030247940e-03  8.71860675189e-03  8.82827332442e-03
       8.93931933262e-03  9.05176212765e-03  9.16561927893e-03  9.28090857687e-03
       9.39764803566e-03  9.51585589607e-03  9.63555062832e-03  9.75675093497e-03
       9.87947575380e-03  1.00037442608e-02  1.01295758732e-02  1.02569902525e-02
       1.03860073073e-02  1.05166471969e-02  1.06489303341e-02  1.07828773882e-02
       1.09185092889e-02  1.10558472289e-02  1.11949126675e-02  1.13357273340e-02
       1.14783132310e-02  1.16226926377e-02  1.17688881138e-02  1.19169225027e-02
       1.20668189349e-02  1.22186008321e-02  1.23722919106e-02  1.25279161848e-02
       1.26854979714e-02  1.28450618929e-02  1.30066328815e-02  1.31702361829e-02
       1.33358973605e-02  1.35036422992e-02  1.36734972095e-02  1.38454886315e-02
       1.40196434393e-02  1.41959888449e-02  1.43745524027e-02  1.45553620135e-02
       1.47384459293e-02  1.49238327572e-02  1.51115514643e-02  1.53016313821e-02
       1.54941022109e-02  1.56889940248e-02  1.58863372758e-02  1.60861627994e-02
       1.62885018187e-02  1.64933859495e-02  1.67008472054e-02  1.69109180026e-02
       1.71236311652e-02  1.73390199300e-02  1.75571179520e-02  1.77779593093e-02
       1.80015785090e-02  1.82280104919e-02  1.84572906386e-02  1.86894547745e-02
       1.89245391757e-02  1.91625805746e-02  1.94036161658e-02  1.96476836114e-02
       1.98948210476e-02  2.01450670901e-02  2.03984608402e-02  2.06550418914e-02
       2.09148503349e-02  2.11779267663e-02  2.14443122919e-02  2.17140485349e-02
       2.19871776421e-02  2.22637422906e-02  2.25437856941e-02  2.28273516100e-02
       2.31144843461e-02  2.34052287673e-02  2.36996303031e-02  2.39977349544e-02
       2.42995893006e-02  2.46052405071e-02  2.49147363325e-02  2.52281251361e-02
       2.55454558856e-02  2.58667781645e-02  2.61921421802e-02  2.65215987713e-02
       2.68551994163e-02  2.71929962407e-02  2.75350420262e-02  2.78813902180e-02
       2.82320949337e-02  2.85872109717e-02  2.89467938196e-02  2.93108996629e-02
       2.96795853940e-02  3.00529086206e-02  3.04309276753e-02  3.08137016244e-02
       3.12012902771e-02  3.15937541949e-02  3.19911547010e-02  3.23935538901e-02
       3.28010146380e-02  3.32136006111e-02  3.36313762768e-02  3.40544069136e-02
       3.44827586207e-02  3.49164983290e-02  3.53556938112e-02  3.58004136925e-02
       3.62507274612e-02  3.67067054799e-02  3.71684189960e-02  3.76359401532e-02
       3.81093420026e-02  3.85886985142e-02  3.90740845885e-02  3.95655760680e-02
       4.00632497493e-02  4.05671833948e-02  4.10774557453e-02  4.15941465318e-02
       4.21173364883e-02  4.26471073643e-02  4.31835419377e-02  4.37267240273e-02
       4.42767385065e-02  4.48336713162e-02  4.53976094782e-02  4.59686411091e-02
       4.65468554337e-02  4.71323427991e-02  4.77251946890e-02  4.83255037377e-02
       4.89333637446e-02  4.95488696892e-02  5.01721177455e-02  5.08032052972e-02
       5.14422309531e-02  5.20892945623e-02  5.27444972298e-02  5.34079413322e-02
       5.40797305341e-02  5.47599698040e-02  5.54487654305e-02  5.61462250395e-02
       5.68524576103e-02  5.75675734934e-02  5.82916844269e-02  5.90249035547e-02
       5.97673454437e-02  6.05191261021e-02  6.12803629970e-02  6.20511750734e-02
       6.28316827721e-02  6.36220080491e-02  6.44222743942e-02  6.52326068508e-02
       6.60531320350e-02  6.68839781554e-02  6.77252750334e-02  6.85771541235e-02
       6.94397485335e-02  7.03131930454e-02  7.11976241368e-02  7.20931800018e-02
       7.30000005729e-02  7.39182275425e-02  7.48480043856e-02  7.57894763817e-02
       7.67427906377e-02  7.77080961108e-02  7.86855436320e-02  7.96752859296e-02
       8.06774776526e-02  8.16922753957e-02  8.27198377230e-02  8.37603251933e-02
       8.48139003847e-02  8.58807279207e-02  8.69609744951e-02  8.80548088987e-02
       8.91624020454e-02  9.02839269987e-02  9.14195589994e-02  9.25694754921e-02
       9.37338561538e-02  9.49128829211e-02  9.61067400195e-02  9.73156139916e-02
       9.85396937263e-02  9.97791704887e-02  1.01034237949e-01  1.02305092215e-01
       1.03591931860e-01  1.04894957955e-01  1.06214374101e-01  1.07550386458e-01
       1.08903203782e-01  1.10273037454e-01  1.11660101512e-01  1.13064612688e-01
       1.14486790439e-01  1.15926856985e-01  1.17385037338e-01  1.18861559341e-01
       1.20356653706e-01  1.21870554042e-01  1.23403496900e-01  1.24955721806e-01
       1.26527471297e-01  1.28118990963e-01  1.29730529483e-01  1.31362338661e-01
       1.33014673472e-01  1.34687792097e-01  1.36381955963e-01  1.38097429787e-01
       1.39834481615e-01  1.41593382866e-01  1.43374408371e-01  1.45177836419e-01
       1.47003948799e-01  1.48853030845e-01  1.50725371480e-01  1.52621263261e-01
       1.54541002425e-01  1.56484888936e-01  1.58453226528e-01  1.60446322759e-01
       1.62464489055e-01  1.64508040758e-01  1.66577297176e-01  1.68672581637e-01
       1.70794221531e-01  1.72942548370e-01  1.75117897834e-01  1.77320609826e-01
       1.79551028523e-01  1.81809502435e-01  1.84096384451e-01  1.86412031901e-01
       1.88756806611e-01  1.91131074956e-01  1.93535207920e-01  1.95969581155e-01
       1.98434575035e-01  2.00930574721e-01  2.03457970218e-01  2.06017156437e-01
       2.08608533256e-01  2.11232505582e-01  2.13889483417e-01  2.16579881920e-01
       2.19304121469e-01  2.22062627734e-01  2.24855831736e-01  2.27684169919e-01
       2.30548084217e-01  2.33448022122e-01  2.36384436755e-01  2.39357786938e-01
       2.42368537262e-01  2.45417158163e-01  2.48504125994e-01  2.51629923100e-01
       2.54795037894e-01  2.57999964931e-01  2.61245204987e-01  2.64531265139e-01
       2.67858658838e-01  2.71227905998e-01  2.74639533070e-01  2.78094073128e-01
       2.81592065951e-01  2.85134058106e-01  2.88720603039e-01  2.92352261153e-01
       2.96029599903e-01  2.99753193880e-01  3.03523624903e-01  3.07341482110e-01
       3.11207362049e-01  3.15121868772e-01  3.19085613928e-01  3.23099216860e-01
       3.27163304702e-01  3.31278512476e-01  3.35445483192e-01  3.39664867947e-01
       3.43937326028e-01  3.48263525017e-01  3.52644140889e-01  3.57079858127e-01
       3.61571369818e-01  3.66119377772e-01  3.70724592623e-01  3.75387733947e-01
       3.80109530367e-01  3.84890719675e-01  3.89732048941e-01  3.94634274632e-01
       3.99598162732e-01  4.04624488857e-01  4.09714038383e-01  4.14867606560e-01
       4.20085998645e-01  4.25370030022e-01  4.30720526331e-01  4.36138323599e-01
       4.41624268368e-01  4.47179217827e-01  4.52804039948e-01  4.58499613622e-01
       4.64266828793e-01  4.70106586601e-01  4.76019799520e-01  4.82007391500e-01
       4.88070298116e-01  4.94209466710e-01  5.00425856538e-01  5.06720438924e-01
       5.13094197409e-01  5.19548127907e-01  5.26083238857e-01  5.32700551384e-01
       5.39401099455e-01  5.46185930045e-01  5.53056103298e-01  5.60012692693e-01
       5.67056785210e-01  5.74189481504e-01  5.81411896072e-01  5.88725157432e-01
       5.96130408295e-01  6.03628805748e-01  6.11221521430e-01  6.18909741718e-01
       6.26694667912e-01  6.34577516423e-01  6.42559518962e-01  6.50641922733e-01
       6.58825990629e-01  6.67113001426e-01  6.75504249986e-01  6.84001047460e-01
       6.92604721489e-01  7.01316616415e-01  7.10138093490e-01  7.19070531086e-01
       7.28115324915e-01  7.37273888246e-01  7.46547652121e-01  7.55938065586e-01
       7.65446595912e-01  7.75074728825e-01  7.84823968742e-01  7.94695839001e-01
       8.04691882101e-01  8.14813659946e-01  8.25062754082e-01  8.35440765952e-01
       8.45949317142e-01  8.56590049633e-01  8.67364626063e-01  8.78274729980e-01
       8.89322066110e-01  9.00508360623e-01  9.11835361399e-01  9.23304838305e-01
       9.34918583471e-01  9.46678411568e-01  9.58586160092e-01  9.70643689654e-01
       9.82852884268e-01  9.95215651644e-01  1.00773392349e+00  1.02040965581e+00
       1.03324482922e+00  1.04624144923e+00  1.05940154660e+00  1.07272717762e+00
       1.08622042444e+00  1.09988339541e+00  1.11371822540e+00  1.12772707613e+00
       1.14191213651e+00  1.15627562298e+00  1.17081977987e+00  1.18554687973e+00
       1.20045922371e+00  1.21555914188e+00  1.23084899364e+00  1.24633116806e+00
       1.26200808426e+00  1.27788219180e+00  1.29395597102e+00  1.31023193350e+00
       1.32671262238e+00  1.34340061281e+00  1.36029851232e+00  1.37740896124e+00
       1.39473463311e+00  1.41227823510e+00  1.43004250844e+00  1.44803022884e+00
       1.46624420690e+00  1.48468728860e+00  1.50336235571e+00  1.52227232625e+00
       1.54142015494e+00  1.56080883366e+00  1.58044139194e+00  1.60032089740e+00
       1.62045045626e+00  1.64083321380e+00  1.66147235487e+00  1.68237110437e+00
       1.70353272778e+00  1.72496053164e+00  1.74665786410e+00  1.76862811540e+00
       1.79087471844e+00  1.81340114930e+00  1.83621092778e+00  1.85930761796e+00
       1.88269482873e+00  1.90637621440e+00  1.93035547523e+00  1.95463635803e+00
       1.97922265674e+00  2.00411821302e+00  2.02932691684e+00  2.05485270712e+00
       2.08069957232e+00  2.10687155106e+00  2.13337273277e+00  2.16020725831e+00
       2.18737932062e+00  2.21489316541e+00  2.24275309176e+00  2.27096345284e+00
       2.29952865658e+00  2.32845316636e+00  2.35774150167e+00  2.38739823890e+00
       2.41742801195e+00  2.44783551306e+00  2.47862549344e+00  2.50980276409e+00
       2.54137219654e+00  2.57333872356e+00  2.60570733999e+00  2.63848310350e+00
       2.67167113535e+00  2.70527662126e+00  2.73930481215e+00  2.77376102498e+00
       2.80865064362e+00  2.84397911963e+00  2.87975197317e+00  2.91597479382e+00
       2.95265324146e+00  2.98979304717e+00  3.02740001413e+00  3.06548001850e+00
       3.10403901036e+00  3.14308301463e+00  3.18261813202e+00  3.22265053997e+00
       3.26318649362e+00  3.30423232680e+00  3.34579445300e+00  3.38787936639e+00
       3.43049364283e+00  3.47364394087e+00  3.51733700285e+00  3.56157965589e+00
       3.60637881300e+00  3.65174147414e+00  3.69767472731e+00  3.74418574968e+00
       3.79128180869e+00  3.83897026320e+00  3.88725856462e+00  3.93615425810e+00
       3.98566498370e+00  4.03579847755e+00  4.08656257313e+00  4.13796520242e+00
       4.19001439720e+00  4.24271829025e+00  4.29608511666e+00  4.35012321512e+00
       4.40484102917e+00  4.46024710860e+00  4.51635011072e+00  4.57315880173e+00
       4.63068205810e+00  4.68892886797e+00  4.74790833251e+00  4.80762966739e+00
       4.86810220419e+00  4.92933539186e+00  4.99133879821e+00  5.05412211141e+00
       5.11769514147e+00  5.18206782180e+00  5.24725021078e+00  5.31325249328e+00
       5.38008498229e+00  5.44775812052e+00  5.51628248205e+00  5.58566877393e+00
       5.65592783793e+00  5.72707065215e+00  5.79910833282e+00  5.87205213597e+00
       5.94591345920e+00  6.02070384351e+00  6.09643497505e+00  6.17311868695e+00
       6.25076696121e+00  6.32939193053e+00  6.40900588021e+00  6.48962125009e+00
       6.57125063650e+00  6.65390679420e+00  6.73760263836e+00  6.82235124665e+00
       6.90816586120e+00  6.99505989072e+00  7.08304691258e+00  7.17214067493e+00
       7.26235509885e+00  7.35370428053e+00  7.44620249347e+00  7.53986419070e+00
       7.63470400704e+00  7.73073676142e+00  7.82797745915e+00  7.92644129428e+00
       8.02614365199e+00  8.12710011097e+00  8.22932644588e+00  8.33283862980e+00
       8.43765283670e+00  8.54378544402e+00  8.65125303520e+00  8.76007240227e+00
       8.87026054847e+00  8.98183469094e+00  9.09481226334e+00  9.20921091867e+00
       9.32504853194e+00  9.44234320301e+00  9.56111325942e+00  9.68137725923e+00
       9.80315399393e+00  9.92646249139e+00  1.00513220188e+01  1.01777520857e+01
       1.03057724471e+01  1.04354031065e+01  1.05666643187e+01  1.06995765938e+01
       1.08341606995e+01  1.09704376648e+01  1.11084287834e+01  1.12481556165e+01
       1.13896399969e+01  1.15329040317e+01  1.16779701061e+01  1.18248608872e+01
       1.19735993269e+01  1.21242086658e+01  1.22767124369e+01  1.24311344694e+01
       1.25874988919e+01  1.27458301367e+01  1.29061529435e+01  1.30684923628e+01
       1.32328737607e+01  1.33993228221e+01  1.35678655549e+01  1.37385282943e+01
       1.39113377066e+01  1.40863207939e+01  1.42635048973e+01  1.44429177025e+01
       1.46245872429e+01  1.48085419049e+01  1.49948104316e+01  1.51834219280e+01
       1.53744058649e+01  1.55677920841e+01  1.57636108024e+01  1.59618926170e+01
       1.61626685097e+01  1.63659698524e+01  1.65718284111e+01  1.67802763517e+01
       1.69913462446e+01  1.72050710699e+01  1.74214842226e+01  1.76406195177e+01
       1.78625111955e+01  1.80871939269e+01  1.83147028192e+01  1.85450734211e+01
       1.87783417285e+01  1.90145441899e+01  1.92537177126e+01  1.94958996678e+01
       1.97411278970e+01  1.99894407176e+01  2.02408769290e+01  2.04954758186e+01
       2.07532771680e+01  2.10143212592e+01  2.12786488808e+01  2.15463013346e+01
       2.18173204418e+01  2.20917485497e+01  2.23696285383e+01  2.26510038269e+01
       2.29359183808e+01  2.32244167187e+01  2.35165439190e+01  2.38123456271e+01
       2.41118680626e+01  2.44151580266e+01  2.47222629087e+01  2.50332306947e+01
       2.53481099739e+01  2.56669499468e+01  2.59898004329e+01  2.63167118782e+01
       2.66477353633e+01  2.69829226112e+01  2.73223259957e+01  2.76659985492e+01
       2.80139939713e+01  2.83663666369e+01  2.87231716050e+01  2.90844646272e+01
       2.94503021561e+01  2.98207413546e+01  3.01958401046e+01  3.05756570161e+01
       3.09602514362e+01  3.13496834586e+01  3.17440139328e+01  3.21433044738e+01
       3.25476174714e+01  3.29570161006e+01  3.33715643305e+01  3.37913269353e+01
       3.42163695036e+01  3.46467584493e+01  3.50825610215e+01  3.55238453152e+01
       3.59706802821e+01  3.64231357409e+01  3.68812823888e+01  3.73451918120e+01
       3.78149364975e+01  3.82905898438e+01  3.87722261726e+01  3.92599207406e+01
       3.97537497512e+01  4.02537903660e+01  4.07601207174e+01  4.12728199206e+01
       4.17919680860e+01  4.23176463313e+01  4.28499367950e+01  4.33889226485e+01
       4.39346881094e+01  4.44873184548e+01  4.50469000341e+01  4.56135202833e+01
       4.61872677377e+01  4.67682320468e+01  4.73565039872e+01  4.79521754778e+01
       4.85553395933e+01  4.91660905794e+01  4.97845238672e+01  5.04107360881e+01
       5.10448250891e+01  5.16868899479e+01  5.23370309884e+01  5.29953497965e+01
       5.36619492358e+01  5.43369334638e+01  5.50204079482e+01  5.57124794834e+01
       5.64132562068e+01  5.71228476162e+01  5.78413645868e+01  5.85689193883e+01
       5.93056257026e+01  6.00515986416e+01  6.08069547651e+01  6.15718120989e+01
       6.23462901537e+01  6.31305099431e+01  6.39245940031e+01  6.47286664111e+01
       6.55428528048e+01  6.63672804027e+01  6.72020780231e+01  6.80473761049e+01
       6.89033067277e+01  6.97700036324e+01  7.06476022421e+01  7.15362396833e+01
       7.24360548076e+01  7.33471882128e+01  7.42697822654e+01  7.52039811225e+01
       7.61499307547e+01  7.71077789686e+01  7.80776754297e+01  7.90597716865e+01
       8.00542211935e+01  8.10611793354e+01  8.20808034515e+01  8.31132528601e+01
       8.41586888836e+01  8.52172748734e+01  8.62891762359e+01  8.73745604576e+01
       8.84735971322e+01  8.95864579864e+01  9.07133169069e+01  9.18543499677e+01
       9.30097354575e+01  9.41796539078e+01  9.53642881206e+01  9.65638231974e+01
       9.77784465681e+01  9.90083480200e+01  1.00253719728e+02
    </PP_R>
    <PP_RAB type="real" size="1199" columns="4">
       3.93052571360e-07  3.97996564081e-07  4.03002744576e-07  4.08071895070e-07
       4.13204807627e-07  4.18402284276e-07  4.23665137133e-07  4.28994188530e-07
       4.34390271142e-07  4.39854228117e-07  4.45386913210e-07  4.50989190915e-07
       4.56661936598e-07  4.62406036638e-07  4.68222388562e-07  4.74111901187e-07
       4.80075494761e-07  4.86114101107e-07  4.92228663771e-07  4.98420138166e-07
       5.04689491720e-07  5.11037704035e-07  5.17465767031e-07  5.23974685105e-07
       5.30565475290e-07  5.37239167410e-07  5.43996804243e-07  5.50839441684e-07
       5.57768148908e-07  5.64784008540e-07  5.71888116822e-07  5.79081583786e-07
       5.86365533426e-07  5.93741103873e-07  6.01209447576e-07  6.08771731478e-07
       6.16429137202e-07  6.24182861232e-07  6.32034115105e-07  6.39984125594e-07
       6.48034134904e-07  6.56185400867e-07  6.64439197133e-07  6.72796813376e-07
       6.81259555490e-07  6.89828745795e-07  6.98505723245e-07  7.07291843636e-07
       7.16188479816e-07  7.25197021904e-07  7.34318877501e-07  7.43555471917e-07
       7.52908248388e-07  7.62378668305e-07  7.71968211440e-07  7.81678376179e-07
       7.91510679754e-07  8.01466658483e-07  8.11547868008e-07  8.21755883539e-07
       8.32092300098e-07  8.42558732772e-07  8.53156816963e-07  8.63888208641e-07
       8.74754584610e-07  8.85757642763e-07  8.96899102349e-07  9.08180704245e-07
       9.19604211223e-07  9.31171408231e-07  9.42884102665e-07  9.54744124659e-07
       9.66753327365e-07  9.78913587245e-07  9.91226804364e-07  1.00369490269e-06
       1.01631983038e-06  1.02910356012e-06  1.04204808938e-06  1.05515544078e-06
       1.06842766236e-06  1.08186682793e-06  1.09547503740e-06  1.10925441707e-06
       1.12320712000e-06  1.13733532633e-06  1.15164124362e-06  1.16612710720e-06
       1.18079518050e-06  1.19564775546e-06  1.21068715281e-06  1.22591572250e-06
       1.24133584400e-06  1.25694992676e-06  1.27276041051e-06  1.28876976565e-06
       1.30498049370e-06  1.32139512760e-06  1.33801623218e-06  1.35484640451e-06
       1.37188827436e-06  1.38914450454e-06  1.40661779137e-06  1.42431086509e-06
       1.44222649029e-06  1.46036746631e-06  1.47873662771e-06  1.49733684473e-06
       1.51617102367e-06  1.53524210742e-06  1.55455307587e-06  1.57410694640e-06
       1.59390677435e-06  1.61395565347e-06  1.63425671644e-06  1.65481313536e-06
       1.67562812219e-06  1.69670492932e-06  1.71804685006e-06  1.73965721910e-06
       1.76153941313e-06  1.78369685128e-06  1.80613299568e-06  1.82885135205e-06
       1.85185547015e-06  1.87514894444e-06  1.89873541457e-06  1.92261856597e-06
       1.94680213044e-06  1.97128988669e-06  1.99608566101e-06  2.02119332776e-06
       2.04661681009e-06  2.07236008046e-06  2.09842716131e-06  2.12482212567e-06
       2.15154909781e-06  2.17861225387e-06  2.20601582253e-06  2.23376408565e-06
       2.26186137896e-06  2.29031209270e-06  2.31912067238e-06  2.34829161937e-06
       2.37782949171e-06  2.40773890474e-06  2.43802453188e-06  2.46869110531e-06
       2.49974341674e-06  2.53118631817e-06  2.56302472262e-06  2.59526360489e-06
       2.62790800238e-06  2.66096301584e-06  2.69443381018e-06  2.72832561530e-06
       2.76264372683e-06  2.79739350708e-06  2.83258038575e-06  2.86820986086e-06
       2.90428749961e-06  2.94081893918e-06  2.97780988770e-06  3.01526612507e-06
       3.05319350390e-06  3.09159795043e-06  3.13048546544e-06  3.16986212516e-06
       3.20973408229e-06  3.25010756691e-06  3.29098888744e-06  3.33238443168e-06
       3.37430066777e-06  3.41674414520e-06  3.45972149586e-06  3.50323943504e-06
       3.54730476251e-06  3.59192436356e-06  3.63710521011e-06  3.68285436174e-06
       3.72917896686e-06  3.77608626378e-06  3.82358358187e-06  3.87167834266e-06