<UPF version="2.0.1">
  <PP_INFO>
Converted from CP2K GTH format
       <PP_INPUTFILE>
C 
    2    2    0    0
    0.33847124000000       2   -8.80367398000000    1.33921085000000
       1
    0.30257575000000       1    9.62248665000000
       </PP_INPUTFILE>  </PP_INFO>
  <PP_HEADER
    generated="Generated in analytical, separable form"
    author="Goedecker/Hartwigsen/Hutter/Teter"
    date="Phys.Rev.B58, 3641 (1998); B54, 1703 (1996)"
    comment="This file generated by CP2K ATOM code"
    element="C"
    pseudo_type="NC"
    relativistic="no"
    is_ultrasoft="false"
    is_paw="false"
    is_coulomb="false"
    has_so="false"
    has_wfc="true"
    has_gipaw="false"
    paw_as_gipaw="false"
    core_correction="false"
    functional="PBE"
    z_valence="4.0000000000"
    total_psenergy="-10.7184370000"
    wfc_cutoff="0.0000000000"
    rho_cutoff="0.0000000000"
    l_max="1"
    l_max_rho="0"
    l_local="-3"
    mesh_size="1073"
    number_of_wfc="2"
    number_of_proj="1"/>
  <PP_MESH dx="1.2500000000000001e-02" mesh="1073" xmin="-7.0000000000000000e+00" rmax="1.0030750631201370e+02" zmesh="6.0000000000000000e+00">
    <PP_R type="real" size="1073" columns="4">
       1.51980327592e-04  1.53892004778e-04  1.55827727903e-04  1.57787799427e-04
       1.59772525616e-04  1.61782216587e-04  1.63817186358e-04  1.65877752898e-04
       1.67964238175e-04  1.70076968205e-04  1.72216273108e-04  1.74382487154e-04
       1.76575948818e-04  1.78797000833e-04  1.81045990244e-04  1.83323268459e-04
       1.85629191307e-04  1.87964119095e-04  1.90328416658e-04  1.92722453424e-04
       1.95146603465e-04  1.97601245560e-04  2.00086763252e-04  2.02603544907e-04
       2.05151983779e-04  2.07732478065e-04  2.10345430974e-04  2.12991250784e-04
       2.15670350911e-04  2.18383149969e-04  2.21130071838e-04  2.23911545731e-04
       2.26728006258e-04  2.29579893498e-04  2.32467653063e-04  2.35391736171e-04
       2.38352599718e-04  2.41350706343e-04  2.44386524507e-04  2.47460528563e-04
       2.50573198830e-04  2.53725021668e-04  2.56916489558e-04  2.60148101172e-04
       2.63420361456e-04  2.66733781707e-04  2.70088879655e-04  2.73486179539e-04
       2.76926212196e-04  2.80409515136e-04  2.83936632634e-04  2.87508115808e-04
       2.91124522710e-04  2.94786418411e-04  2.98494375090e-04  3.02248972122e-04
       3.06050796171e-04  3.09900441280e-04  3.13798508963e-04  3.17745608302e-04
       3.21742356038e-04  3.25789376672e-04  3.29887302559e-04  3.34036774008e-04
       3.38238439383e-04  3.42492955202e-04  3.46800986242e-04  3.51163205641e-04
       3.55580295006e-04  3.60052944516e-04  3.64581853030e-04  3.69167728201e-04
       3.73811286581e-04  3.78513253735e-04  3.83274364354e-04  3.88095362373e-04
       3.92977001082e-04  3.97920043246e-04  4.02925261227e-04  4.07993437100e-04
       4.13125362778e-04  4.18321840134e-04  4.23583681128e-04  4.28911707935e-04
       4.34306753068e-04  4.39769659515e-04  4.45301280867e-04  4.50902481449e-04
       4.56574136461e-04  4.62317132112e-04  4.68132365754e-04  4.74020746031e-04
       4.79983193015e-04  4.86020638348e-04  4.92134025396e-04  4.98324309386e-04
       5.04592457563e-04  5.10939449338e-04  5.17366276442e-04  5.23873943079e-04
       5.30463466085e-04  5.37135875087e-04  5.43892212663e-04  5.50733534503e-04
       5.57660909579e-04  5.64675420306e-04  5.71778162716e-04  5.78970246628e-04
       5.86252795819e-04  5.93626948201e-04  6.01093856003e-04  6.08654685942e-04
       6.16310619414e-04  6.24062852674e-04  6.31912597025e-04  6.39861079004e-04
       6.47909540579e-04  6.56059239338e-04  6.64311448688e-04  6.72667458053e-04
       6.81128573077e-04  6.89696115827e-04  6.98371424997e-04  7.07155856124e-04
       7.16050781792e-04  7.25057591851e-04  7.34177693635e-04  7.43412512176e-04
       7.52763490435e-04  7.62232089521e-04  7.71819788922e-04  7.81528086735e-04
       7.91358499902e-04  8.01312564444e-04  8.11391835705e-04  8.21597888591e-04
       8.31932317818e-04  8.42396738163e-04  8.52992784712e-04  8.63722113119e-04
       8.74586399864e-04  8.85587342512e-04  8.96726659985e-04  9.08006092823e-04
       9.19427403460e-04  9.30992376500e-04  9.42702818992e-04  9.54560560718e-04
       9.66567454474e-04  9.78725376361e-04  9.91036226079e-04  1.00350192722e-03
       1.01612442759e-03  1.02890569946e-03  1.04184773994e-03  1.05495257125e-03
       1.06822224104e-03  1.08165882274e-03  1.09526441582e-03  1.10904114620e-03
       1.12299116651e-03  1.13711665648e-03  1.15141982324e-03  1.16590290169e-03
       1.18056815484e-03  1.19541787417e-03  1.21045437997e-03  1.22568002173e-03
       1.24109717849e-03  1.25670825920e-03  1.27251570314e-03  1.28852198025e-03
       1.30472959154e-03  1.32114106948e-03  1.33775897840e-03  1.35458591488e-03
       1.37162450817e-03  1.38887742058e-03  1.40634734791e-03  1.42403701987e-03
       1.44194920052e-03  1.46008668866e-03  1.47845231832e-03  1.49704895916e-03
       1.51587951695e-03  1.53494693399e-03  1.55425418962e-03  1.57380430063e-03
       1.59360032176e-03  1.61364534618e-03  1.63394250597e-03  1.65449497260e-03
       1.67530595744e-03  1.69637871224e-03  1.71771652967e-03  1.73932274380e-03
       1.76120073064e-03  1.78335390869e-03  1.80578573941e-03  1.82849972782e-03
       1.85149942304e-03  1.87478841881e-03  1.89837035409e-03  1.92224891359e-03
       1.94642782840e-03  1.97091087652e-03  1.99570188347e-03  2.02080472290e-03
       2.04622331718e-03  2.07196163801e-03  2.09802370707e-03  2.12441359660e-03
       2.15113543008e-03  2.17819338284e-03  2.20559168276e-03  2.23333461086e-03
       2.26142650203e-03  2.28987174570e-03  2.31867478649e-03  2.34784012493e-03
       2.37737231817e-03  2.40727598066e-03  2.43755578493e-03  2.46821646225e-03
       2.49926280341e-03  2.53069965947e-03  2.56253194250e-03  2.59476462636e-03
       2.62740274748e-03  2.66045140561e-03  2.69391576469e-03  2.72780105360e-03
       2.76211256696e-03  2.79685566603e-03  2.83203577949e-03  2.86765840431e-03
       2.90372910658e-03  2.94025352244e-03  2.97723735889e-03  3.01468639473e-03
       3.05260648146e-03  3.09100354416e-03  3.12988358245e-03  3.16925267142e-03
       3.20911696256e-03  3.24948268477e-03  3.29035614525e-03  3.33174373057e-03
       3.37365190763e-03  3.41608722467e-03  3.45905631228e-03  3.50256588448e-03
       3.54662273973e-03  3.59123376199e-03  3.63640592184e-03  3.68214627751e-03
       3.72846197603e-03  3.77536025431e-03  3.82284844032e-03  3.87093395418e-03
       3.91962430933e-03  3.96892711377e-03  4.01885007114e-03  4.06940098201e-03
       4.12058774506e-03  4.17241835833e-03  4.22490092045e-03  4.27804363195e-03
       4.33185479646e-03  4.38634282210e-03  4.44151622273e-03  4.49738361930e-03
       4.55395374122e-03  4.61123542767e-03  4.66923762904e-03  4.72796940829e-03
       4.78743994237e-03  4.84765852369e-03  4.90863456152e-03  4.97037758348e-03
       5.03289723705e-03  5.09620329106e-03  5.16030563720e-03  5.22521429159e-03
       5.29093939634e-03  5.35749122115e-03  5.42488016485e-03  5.49311675712e-03
       5.56221166005e-03  5.63217566988e-03  5.70301971861e-03  5.77475487578e-03
       5.84739235014e-03  5.92094349146e-03  5.99541979224e-03  6.07083288956e-03
       6.14719456687e-03  6.22451675584e-03  6.30281153822e-03  6.38209114772e-03
       6.46236797195e-03  6.54365455433e-03  6.62596359604e-03  6.70930795804e-03
       6.79370066306e-03  6.87915489763e-03  6.96568401415e-03  7.05330153297e-03
       7.14202114451e-03  7.23185671138e-03  7.32282227057e-03  7.41493203564e-03
       7.50820039893e-03  7.60264193380e-03  7.69827139695e-03  7.79510373066e-03
       7.89315406519e-03  7.99243772110e-03  8.09297021167e-03  8.19476724530e-03
       8.29784472798e-03  8.40221876578e-03  8.50790566736e-03  8.61492194651e-03
       8.72328432474e-03  8.83300973389e-03  8.94411531879e-03  9.05661843990e-03
       9.17053667607e-03  9.28588782725e-03  9.40268991730e-03  9.52096119677e-03
       9.64072014581e-03  9.76198547698e-03  9.88477613824e-03  1.00091113159e-02
       1.01350104375e-02  1.02624931752e-02  1.03915794483e-02  1.05222894268e-02
       1.06546435345e-02  1.07886624518e-02  1.09243671197e-02  1.10617787421e-02
       1.12009187900e-02  1.13418090042e-02  1.14844713991e-02  1.16289282661e-02
       1.17752021767e-02  1.19233159867e-02  1.20732928390e-02  1.22251561680e-02
       1.23789297024e-02  1.25346374698e-02  1.26923037998e-02  1.28519533281e-02
       1.30136110002e-02  1.31773020755e-02  1.33430521311e-02  1.35108870658e-02
       1.36808331040e-02  1.38529168002e-02  1.40271650429e-02  1.42036050586e-02
       1.43822644166e-02  1.45631710326e-02  1.47463531737e-02  1.49318394625e-02
       1.51196588816e-02  1.53098407781e-02  1.55024148684e-02  1.56974112426e-02
       1.58948603693e-02  1.60947931002e-02  1.62972406752e-02  1.65022347273e-02
       1.67098072871e-02  1.69199907883e-02  1.71328180725e-02  1.73483223944e-02
       1.75665374270e-02  1.77874972667e-02  1.80112364391e-02  1.82377899039e-02
       1.84671930604e-02  1.86994817534e-02  1.89346922785e-02  1.91728613877e-02
       1.94140262956e-02  1.96582246846e-02  1.99054947111e-02  2.01558750117e-02
       2.04094047088e-02  2.06661234169e-02  2.09260712489e-02  2.11892888220e-02
       2.14558172646e-02  2.17256982224e-02  2.19989738646e-02  2.22756868913e-02
       2.25558805394e-02  2.28395985898e-02  2.31268853738e-02  2.34177857808e-02
       2.37123452644e-02  2.40106098502e-02  2.43126261427e-02  2.46184413325e-02
       2.49281032038e-02  2.52416601419e-02  2.55591611408e-02  2.58806558107e-02
       2.62061943856e-02  2.65358277317e-02  2.68696073550e-02  2.72075854090e-02
       2.75498147036e-02  2.78963487128e-02  2.82472415832e-02  2.86025481427e-02
       2.89623239084e-02  2.93266250962e-02  2.96955086288e-02  3.00690321451e-02
       3.04472540088e-02  3.08302333179e-02  3.12180299137e-02  3.16107043901e-02
       3.20083181035e-02  3.24109331816e-02  3.28186125340e-02  3.32314198614e-02
       3.36494196658e-02  3.40726772604e-02  3.45012587802e-02  3.49352311918e-02
       3.53746623045e-02  3.58196207800e-02  3.62701761442e-02  3.67263987972e-02
       3.71883600247e-02  3.76561320092e-02  3.81297878409e-02  3.86094015295e-02
       3.90950480156e-02  3.95868031826e-02  4.00847438681e-02  4.05889478763e-02
       4.10994939903e-02  4.16164619838e-02  4.21399326341e-02  4.26699877347e-02
       4.32067101076e-02  4.37501836170e-02  4.43004931815e-02  4.48577247882e-02
       4.54219655057e-02  4.59933034977e-02  4.65718280369e-02  4.71576295190e-02
       4.77507994767e-02  4.83514305939e-02  4.89596167206e-02  4.95754528870e-02
       5.01990353187e-02  5.08304614518e-02  5.14698299480e-02  5.21172407098e-02
       5.27727948965e-02  5.34365949398e-02  5.41087445597e-02  5.47893487811e-02
       5.54785139497e-02  5.61763477489e-02  5.68829592168e-02  5.75984587628e-02
       5.83229581852e-02  5.90565706884e-02  5.97994109010e-02  6.05515948932e-02
       6.13132401952e-02  6.20844658158e-02  6.28653922605e-02  6.36561415507e-02
       6.44568372424e-02  6.52676044461e-02  6.60885698458e-02  6.69198617190e-02
       6.77616099568e-02  6.86139460839e-02  6.94770032798e-02  7.03509163987e-02
       7.12358219915e-02  7.21318583263e-02  7.30391654108e-02  7.39578850135e-02
       7.48881606862e-02  7.58301377864e-02  7.67839634998e-02  7.77497868638e-02
       7.87277587902e-02  7.97180320890e-02  8.07207614926e-02  8.17361036793e-02
       8.27642172986e-02  8.38052629952e-02  8.48594034346e-02  8.59268033285e-02
       8.70076294602e-02  8.81020507110e-02  8.92102380865e-02  9.03323647432e-02
       9.14686060157e-02  9.26191394439e-02  9.37841448012e-02  9.49638041218e-02
       9.61583017301e-02  9.73678242686e-02  9.85925607278e-02  9.98327024752e-02
       1.01088443285e-01  1.02359979371e-01  1.03647509411e-01  1.04951234585e-01
       1.06271358604e-01  1.07608087738e-01  1.08961630855e-01  1.10332199448e-01
       1.11720007673e-01  1.13125272375e-01  1.14548213132e-01  1.15989052280e-01
       1.17448014953e-01  1.18925329118e-01  1.20421225607e-01  1.21935938158e-01
       1.23469703447e-01  1.25022761128e-01  1.26595353871e-01  1.28187727395e-01
       1.29800130512e-01  1.31432815164e-01  1.33086036460e-01  1.34760052720e-01
       1.36455125513e-01  1.38171519697e-01  1.39909503462e-01  1.41669348371e-01
       1.43451329404e-01  1.45255725000e-01  1.47082817097e-01  1.48932891185e-01
       1.50806236339e-01  1.52703145275e-01  1.54623914388e-01  1.56568843802e-01
       1.58538237417e-01  1.60532402953e-01  1.62551652005e-01  1.64596300082e-01
       1.66666666667e-01  1.68763075257e-01  1.70885853421e-01  1.73035332847e-01
       1.75211849396e-01  1.77415743153e-01  1.79647358481e-01  1.81907044074e-01
       1.84195153013e-01  1.86512042819e-01  1.88858075511e-01  1.91233617662e-01
       1.93639040455e-01  1.96074719741e-01  1.98541036102e-01  2.01038374903e-01
       2.03567126360e-01  2.06127685594e-01  2.08720452699e-01  2.11345832798e-01
       2.14004236115e-01  2.16696078028e-01  2.19421779145e-01  2.22181765361e-01
       2.24976467929e-01  2.27806323529e-01  2.30671774330e-01  2.33573268065e-01
       2.36511258099e-01  2.39486203498e-01  2.42498569103e-01  2.45548825603e-01
       2.48637449607e-01  2.51764923718e-01  2.54931736611e-01  2.58138383106e-01
       2.61385364248e-01  2.64673187386e-01  2.68002366248e-01  2.71373421024e-01
       2.74786878450e-01  2.78243271885e-01  2.81743141397e-01  2.85287033847e-01
       2.88875502978e-01  2.92509109493e-01  2.96188421152e-01  2.99914012855e-01
       3.03686466732e-01  3.07506372237e-01  3.11374326239e-01  3.15290933112e-01
       3.19256804836e-01  3.23272561084e-01  3.27338829328e-01  3.31456244930e-01
       3.35625451245e-01  3.39847099719e-01  3.44121849994e-01  3.48450370009e-01
       3.52833336102e-01  3.57271433122e-01  3.61765354531e-01  3.66315802512e-01
       3.70923488082e-01  3.75589131202e-01  3.80313460888e-01  3.85097215326e-01
       3.89941141988e-01  3.94845997746e-01  3.99812548995e-01  4.04841571767e-01
       4.09933851859e-01  4.15090184950e-01  4.20311376726e-01  4.25598243010e-01
       4.30951609886e-01  4.36372313827e-01  4.41861201830e-01  4.47419131545e-01
       4.53046971410e-01  4.58745600785e-01  4.64515910094e-01  4.70358800959e-01
       4.76275186344e-01  4.82265990695e-01  4.88332150089e-01  4.94474612375e-01
       5.00694337324e-01  5.06992296783e-01  5.13369474820e-01  5.19826867881e-01
       5.26365484948e-01  5.32986347693e-01  5.39690490640e-01  5.46478961323e-01
       5.53352820456e-01  5.60313142093e-01  5.67361013798e-01  5.74497536817e-01
       5.81723826244e-01  5.89041011202e-01  5.96450235017e-01  6.03952655394e-01
       6.11549444603e-01  6.19241789657e-01  6.27030892500e-01  6.34917970196e-01
       6.42904255116e-01  6.50990995134e-01  6.59179453820e-01  6.67470910637e-01
       6.75866661141e-01  6.84368017186e-01  6.92976307126e-01  7.01692876024e-01
       7.10519085861e-01  7.19456315752e-01  7.28505962155e-01  7.37669439097e-01
       7.46948178390e-01  7.56343629855e-01  7.65857261551e-01  7.75490560003e-01
       7.85245030432e-01  7.95122196995e-01  8.05123603018e-01  8.15250811243e-01
       8.25505404066e-01  8.35888983787e-01  8.46403172863e-01  8.57049614157e-01
       8.67829971197e-01  8.78745928435e-01  8.89799191512e-01  9.00991487524e-01
       9.12324565288e-01  9.23800195622e-01  9.35420171616e-01  9.47186308914e-01
       9.59100446001e-01  9.71164444484e-01  9.83380189387e-01  9.95749589445e-01
       1.00827457740e+00  1.02095711031e+00  1.03379916985e+00  1.04680276261e+00
       1.05996992043e+00  1.07330270071e+00  1.08680318672e+00  1.10047348794e+00
       1.11431574038e+00  1.12833210692e+00  1.14252477765e+00  1.15689597020e+00
       1.17144793010e+00  1.18618293112e+00  1.20110327564e+00  1.21621129498e+00
       1.23150934982e+00  1.24699983050e+00  1.26268515744e+00  1.27856778150e+00
       1.29465018438e+00  1.31093487899e+00  1.32742440984e+00  1.34412135345e+00
       1.36102831876e+00  1.37814794751e+00  1.39548291469e+00  1.41303592891e+00
       1.43080973286e+00  1.44880710375e+00  1.46703085370e+00  1.48548383020e+00
       1.50416891657e+00  1.52308903240e+00  1.54224713398e+00  1.56164621482e+00
       1.58128930606e+00  1.60117947697e+00  1.62131983543e+00  1.64171352841e+00
       1.66236374247e+00  1.68327370425e+00  1.70444668097e+00  1.72588598095e+00
       1.74759495412e+00  1.76957699256e+00  1.79183553101e+00  1.81437404741e+00
       1.83719606344e+00  1.86030514509e+00  1.88370490321e+00  1.90739899406e+00
       1.93139111987e+00  1.95568502948e+00  1.98028451885e+00  2.00519343171e+00
       2.03041566012e+00  2.05595514511e+00  2.08181587727e+00  2.10800189740e+00
       2.13451729711e+00  2.16136621949e+00  2.18855285975e+00  2.21608146584e+00
       2.24395633917e+00  2.27218183524e+00  2.30076236434e+00  2.32970239225e+00
       2.35900644090e+00  2.38867908910e+00  2.41872497327e+00  2.44914878813e+00
       2.47995528748e+00  2.51114928489e+00  2.54273565448e+00  2.57471933169e+00
       2.60710531403e+00  2.63989866189e+00  2.67310449928e+00  2.70672801468e+00
       2.74077446185e+00  2.77524916060e+00  2.81015749768e+00  2.84550492759e+00
       2.88129697343e+00  2.91753922778e+00  2.95423735358e+00  2.99139708497e+00
       3.02902422824e+00  3.06712466271e+00  3.10570434165e+00  3.14476929321e+00
       3.18432562137e+00  3.22437950689e+00  3.26493720827e+00  3.30600506272e+00
       3.34758948720e+00  3.38969697934e+00  3.43233411853e+00  3.47550756691e+00
       3.51922407042e+00  3.56349045985e+00  3.60831365192e+00  3.65370065033e+00
       3.69965854691e+00  3.74619452266e+00  3.79331584892e+00  3.84102988851e+00
       3.88934409682e+00  3.93826602307e+00  3.98780331140e+00  4.03796370210e+00
       4.08875503285e+00  4.14018523989e+00  4.19226235930e+00  4.24499452824e+00
       4.29838998620e+00  4.35245707634e+00  4.40720424676e+00  4.46264005181e+00
       4.51877315344e+00  4.57561232258e+00  4.63316644044e+00  4.69144450000e+00
       4.75045560729e+00  4.81020898295e+00  4.87071396354e+00  4.93198000310e+00
       4.99401667457e+00  5.05683367130e+00  5.12044080858e+00  5.18484802516e+00
       5.25006538479e+00  5.31610307782e+00  5.38297142277e+00  5.45068086795e+00
       5.51924199312e+00  5.58866551107e+00  5.65896226937e+00  5.73014325205e+00
       5.80221958127e+00  5.87520251910e+00  5.94910346928e+00  6.02393397897e+00
       6.09970574061e+00  6.17643059368e+00  6.25412052660e+00  6.33278767857e+00
       6.41244434151e+00  6.49310296191e+00  6.57477614287e+00  6.65747664597e+00
       6.74121739334e+00  6.82601146965e+00  6.91187212414e+00  6.99881277271e+00
       7.08684700001e+00  7.17598856158e+00  7.26625138595e+00  7.35764957689e+00
       7.45019741555e+00  7.54390936271e+00  7.63880006106e+00  7.73488433745e+00
       7.83217720526e+00  7.93069386670e+00  8.03044971518e+00  8.13146033778e+00
       8.23374151759e+00  8.33730923627e+00  8.44217967647e+00  8.54836922443e+00
       8.65589447247e+00  8.76477222163e+00  8.87501948429e+00  8.98665348679e+00
       9.09969167219e+00  9.21415170292e+00  9.33005146361e+00  9.44740906381e+00
       9.56624284091e+00  9.68657136291e+00  9.80841343139e+00  9.93178808443e+00
       1.00567145996e+01  1.01832124968e+01  1.03113015417e+01  1.04410017485e+01
       1.05723333830e+01  1.07053169662e+01  1.08399732768e+01  1.09763233554e+01
       1.11143885068e+01  1.12541903041e+01  1.13957505914e+01  1.15390914880e+01
       1.16842353911e+01  1.18312049798e+01  1.19800232183e+01  1.21307133598e+01
       1.22832989499e+01  1.24378038305e+01  1.25942521433e+01  1.27526683336e+01
       1.29130771542e+01  1.30755036694e+01  1.32399732587e+01  1.34065116207e+01
       1.35751447775e+01  1.37458990782e+01  1.39188012037e+01  1.40938781701e+01
       1.42711573337e+01  1.44506663947e+01  1.46324334016e+01  1.48164867561e+01
       1.50028552168e+01  1.51915679041e+01  1.53826543048e+01  1.55761442765e+01
       1.57720680525e+01  1.59704562462e+01  1.61713398562e+01  1.63747502709e+01
       1.65807192737e+01  1.67892790475e+01  1.70004621804e+01  1.72143016702e+01
       1.74308309295e+01  1.76500837917e+01  1.78720945153e+01  1.80968977901e+01
       1.83245287420e+01  1.85550229388e+01  1.87884163957e+01  1.90247455808e+01
       1.92640474212e+01  1.95063593082e+01  1.97517191035e+01  2.00001651450e+01
       2.02517362531e+01  2.05064717362e+01  2.07644113972e+01  2.10255955397e+01
       2.12900649743e+01  2.15578610249e+01  2.18290255351e+01  2.21036008750e+01
       2.23816299475e+01  2.26631561952e+01  2.29482236071e+01  2.32368767257e+01
       2.35291606536e+01  2.38251210607e+01  2.41248041914e+01  2.44282568718e+01
       2.47355265171e+01  2.50466611387e+01  2.53617093521e+01  2.56807203842e+01
       2.60037440811e+01  2.63308309159e+01  2.66620319966e+01  2.69973990740e+01
       2.73369845500e+01  2.76808414854e+01  2.80290236086e+01  2.83815853238e+01
       2.87385817195e+01  2.91000685770e+01  2.94661023794e+01  2.98367403203e+01
       3.02120403125e+01  3.05920609975e+01  3.09768617543e+01  3.13665027088e+01
       3.17610447431e+01  3.21605495053e+01  3.25650794188e+01  3.29746976921e+01
       3.33894683291e+01  3.38094561385e+01  3.42347267441e+01  3.46653465955e+01
       3.51013829778e+01  3.55429040226e+01  3.59899787184e+01  3.64426769217e+01
       3.69010693674e+01  3.73652276802e+01  3.78352243859e+01  3.83111329223e+01
       3.87930276513e+01  3.92809838697e+01  3.97750778218e+01  4.02753867107e+01
       4.07819887107e+01  4.12949629794e+01  4.18143896701e+01  4.23403499443e+01
       4.28729259843e+01  4.34122010062e+01  4.39582592728e+01  4.45111861069e+01
       4.50710679044e+01  4.56379921479e+01  4.62120474205e+01  4.67933234196e+01
       4.73819109707e+01  4.79779020417e+01  4.85813897576e+01  4.91924684144e+01
       4.98112334945e+01  5.04377816812e+01  5.10722108739e+01  5.17146202034e+01
       5.23651100476e+01  5.30237820468e+01  5.36907391197e+01  5.43660854799e+01
       5.50499266516e+01  5.57423694863e+01  5.64435221797e+01  5.71534942882e+01
       5.78723967465e+01  5.86003418845e+01  5.93374434451e+01  6.00838166020e+01
       6.08395779776e+01  6.16048456609e+01  6.23797392267e+01  6.31643797537e+01
       6.39588898435e+01  6.47633936400e+01  6.55780168485e+01  6.64028867556e+01
       6.72381322488e+01  6.80838838370e+01  6.89402736705e+01  6.98074355621e+01
       7.06855050075e+01  7.15746192068e+01  7.24749170861e+01  7.33865393185e+01
       7.43096283471e+01  7.52443284063e+01  7.61907855448e+01  7.71491476486e+01
       7.81195644637e+01  7.91021876197e+01  8.00971706535e+01  8.11046690331e+01
       8.21248401822e+01  8.31578435047e+01  8.42038404095e+01  8.52629943356e+01
       8.63354707781e+01  8.74214373135e+01  8.85210636263e+01  8.96345215355e+01
       9.07619850210e+01  9.19036302513e+01  9.30596356108e+01  9.42301817278e+01
       9.54154515023e+01  9.66156301352e+01  9.78309051570e+01  9.90614664566e+01
       1.00307506312e+02
    </PP_R>
    <PP_RAB type="real" size="1073" columns="4">
       1.89975409491e-06  1.92365005973e-06  1.94784659878e-06  1.97234749284e-06
       1.99715657020e-06  2.02227770733e-06  2.04771482948e-06  2.07347191123e-06
       2.09955297718e-06  2.12596210256e-06  2.15270341385e-06  2.17978108942e-06
       2.20719936022e-06  2.23496251042e-06  2.26307487805e-06  2.29154085574e-06
       2.32036489134e-06  2.34955148869e-06  2.37910520823e-06  2.40903066780e-06
       2.43933254331e-06  2.47001556950e-06  2.50108454065e-06  2.53254431134e-06
       2.56439979724e-06  2.59665597582e-06  2.62931788718e-06  2.66239063481e-06
       2.69587938639e-06  2.72978937461e-06  2.76412589797e-06  2.79889432163e-06
       2.83410007822e-06  2.86974866872e-06  2.90584566328e-06  2.94239670214e-06
       2.97940749647e-06  3.01688382929e-06  3.05483155634e-06  3.09325660704e-06
       3.13216498537e-06  3.17156277086e-06  3.21145611948e-06  3.25185126465e-06
       3.29275451820e-06  3.33417227134e-06  3.37611099569e-06  3.41857724424e-06
       3.46157765245e-06  3.50511893920e-06  3.54920790792e-06  3.59385144760e-06
       3.63905653388e-06  3.68483023014e-06  3.73117968863e-06  3.77811215153e-06
       3.82563495214e-06  3.87375551600e-06  3.92248136204e-06  3.97182010377e-06
       4.02177945047e-06  4.07236720840e-06  4.12359128199e-06  4.17545967510e-06
       4.22798049228e-06  4.28116194002e-06  4.33501232802e-06  4.38954007052e-06
       4.44475368758e-06  4.50066180645e-06  4.55727316288e-06  4.61459660252e-06
       4.67264108226e-06  4.73141567168e-06  4.79092955443e-06  4.85119202966e-06
       4.91221251352e-06  4.97400054058e-06  5.03656576534e-06  5.09991796375e-06
       5.16406703472e-06  5.22902300167e-06  5.29479601410e-06  5.36139634918e-06
       5.42883441335e-06  5.49712074394e-06  5.56626601083e-06  5.63628101811e-06
       5.70717670577e-06  5.77896415139e-06  5.85165457193e-06  5.92525932539e-06
       5.99978991268e-06  6.07525797935e-06  6.15167531744e-06  6.22905386732e-06
       6.30740571953e-06  6.38674311672e-06  6.46707845552e-06  6.54842428848e-06
       6.63079332606e-06  6.71419843859e-06  6.79865265828e-06  6.88416918129e-06
       6.97076136973e-06  7.05844275382e-06  7.14722703395e-06  7.23712808285e-06
       7.32815994773e-06  7.42033685252e-06  7.51367320003e-06  7.60818357427e-06
       7.70388274267e-06  7.80078565843e-06  7.89890746281e-06  7.99826348755e-06
       8.09886925724e-06  8.20074049173e-06  8.30389310860e-06  8.40834322567e-06
       8.51410716347e-06  8.62120144783e-06  8.72964281247e-06  8.83944820155e-06
       8.95063477240e-06  9.06321989814e-06  9.17722117043e-06  9.29265640220e-06
       9.40954363044e-06  9.52790111902e-06  9.64774736153e-06  9.76910108419e-06
       9.89198124877e-06  1.00164070556e-05  1.01423979463e-05  1.02699736074e-05
       1.03991539727e-05  1.05299592270e-05  1.06624098089e-05  1.07965264140e-05
       1.09323299983e-05  1.10698417814e-05  1.12090832498e-05  1.13500761603e-05
       1.14928425433e-05  1.16374047062e-05  1.17837852374e-05  1.19320070090e-05
       1.20820931809e-05  1.22340672045e-05  1.23879528260e-05  1.25437740903e-05
       1.27015553448e-05  1.28613212432e-05  1.30230967492e-05  1.31869071406e-05
       1.33527780130e-05  1.35207352842e-05  1.36908051978e-05  1.38630143275e-05
       1.40373895814e-05  1.42139582060e-05  1.43927477905e-05  1.45737862712e-05
       1.47571019355e-05  1.49427234271e-05  1.51306797496e-05  1.53210002716e-05
       1.55137147311e-05  1.57088532401e-05  1.59064462893e-05  1.61065247531e-05
       1.63091198942e-05  1.65142633685e-05  1.67219872300e-05  1.69323239360e-05
       1.71453063521e-05  1.73609677572e-05  1.75793418489e-05  1.78004627484e-05
       1.80243650065e-05  1.82510836083e-05  1.84806539790e-05  1.87131119895e-05
       1.89484939619e-05  1.91868366749e-05  1.94281773703e-05  1.96725537578e-05
       1.99200040220e-05  2.01705668272e-05  2.04242813246e-05  2.06811871575e-05
       2.09413244680e-05  2.12047339030e-05  2.14714566208e-05  2.17415342974e-05
       2.20150091330e-05  2.22919238586e-05  2.25723217426e-05  2.28562465978e-05
       2.31437427880e-05  2.34348552351e-05  2.37296294261e-05  2.40281114199e-05
       2.43303478550e-05  2.46363859565e-05  2.49462735433e-05  2.52600590362e-05
       2.55777914647e-05  2.58995204752e-05  2.62252963384e-05  2.65551699575e-05
       2.68891928760e-05  2.72274172856e-05  2.75698960345e-05  2.79166826357e-05
       2.82678312754e-05  2.86233968213e-05  2.89834348311e-05  2.93480015616e-05
       2.97171539771e-05  3.00909497583e-05  3.04694473117e-05  3.08527057781e-05
       3.12407850427e-05  3.16337457434e-05  3.20316492813e-05  3.24345578295e-05
       3.28425343434e-05  3.32556425702e-05  3.36739470587e-05  3.40975131699e-05
       3.45264070870e-05  3.49606958254e-05  3.54004472437e-05  3.58457300539e-05
       3.62966138323e-05  3.67531690305e-05  3.72154669861e-05  3.76835799341e-05
       3.81575810182e-05  3.86375443019e-05  3.91235447806e-05  3.96156583927e-05
       4.01139620321e-05  4.06185335596e-05  4.11294518156e-05  4.16467966322e-05
       4.21706488454e-05  4.27010903084e-05  4.32382039035e-05  4.37820735560e-05
       4.43327842466e-05  4.48904220249e-05  4.54550740230e-05  4.60268284689e-05
       4.66057747003e-05  4.71920031789e-05  4.77856055040e-05  4.83866744272e-05
       4.89953038667e-05  4.96115889221e-05  5.02356258892e-05  5.08675122751e-05
       5.15073468132e-05  5.21552294791e-05  5.28112615057e-05  5.34755453993e-05
       5.41481849557e-05  5.48292852762e-05  5.55189527841e-05  5.62172952413e-05
       5.69244217652e-05  5.76404428458e-05  5.83654703630e-05  5.90996176036e-05
       5.98429992797e-05  6.05957315462e-05  6.13579320190e-05  6.21297197935e-05
       6.29112154632e-05  6.37025411382e-05  6.45038204650e-05  6.53151786449e-05
       6.61367424543e-05  6.69686402643e-05  6.78110020606e-05  6.86639594640e-05
       6.95276457507e-05  7.04021958735e-05  7.12877464826e-05  7.21844359472e-05
       7.30924043768e-05  7.40117936432e-05  7.49427474030e-05  7.58854111195e-05
       7.68399320859e-05  7.78064594480e-05  7.87851442278e-05  7.97761393466e-05
       8.07795996494e-05  8.17956819291e-05  8.28245449505e-05  8.38663494755e-05
       8.49212582883e-05  8.59894362204e-05  8.70710501769e-05  8.81662691622e-05
       8.92752643063e-05  9.03982088922e-05  9.15352783821e-05  9.26866504455e-05
       9.38525049866e-05  9.50330241725e-05  9.62283924618e-05  9.74387966332e-05
       9.86644258149e-05  9.99054715138e-05  1.01162127646e-04  1.02434590566e-04
       1.03723059100e-04  1.05027734572e-04  1.06348820842e-04  1.07686524331e-04
       1.09041054059e-04  1.10412621674e-04  1.11801441485e-04  1.13207730499e-04